+ 0.1 0 100 tcp 1000 ------- 0 0.0 50.0 0 0
- 0.1 0 100 tcp 1000 ------- 0 0.0 50.0 0 0
+ 0.1 1 100 tcp 1000 ------- 0 1.0 51.0 0 1
- 0.1 1 100 tcp 1000 ------- 0 1.0 51.0 0 1
+ 0.1 2 100 tcp 1000 ------- 0 2.0 52.0 0 2
- 0.1 2 100 tcp 1000 ------- 0 2.0 52.0 0 2
+ 0.1 3 100 tcp 1000 ------- 0 3.0 53.0 0 3
- 0.1 3 100 tcp 1000 ------- 0 3.0 53.0 0 3
+ 0.1 4 100 tcp 1000 ------- 0 4.0 54.0 0 4
- 0.1 4 100 tcp 1000 ------- 0 4.0 54.0 0 4
+ 0.1 5 100 tcp 1000 ------- 0 5.0 55.0 0 5
- 0.1 5 100 tcp 1000 ------- 0 5.0 55.0 0 5
+ 0.1 6 100 tcp 1000 ------- 0 6.0 56.0 0 6
- 0.1 6 100 tcp 1000 ------- 0 6.0 56.0 0 6
+ 0.1 7 100 tcp 1000 ------- 0 7.0 57.0 0 7
- 0.1 7 100 tcp 1000 ------- 0 7.0 57.0 0 7
+ 0.1 8 100 tcp 1000 ------- 0 8.0 58.0 0 8
- 0.1 8 100 tcp 1000 ------- 0 8.0 58.0 0 8
+ 0.1 9 100 tcp 1000 ------- 0 9.0 59.0 0 9
- 0.1 9 100 tcp 1000 ------- 0 9.0 59.0 0 9
+ 0.1 10 100 tcp 1000 ------- 0 10.0 60.0 0 10
- 0.1 10 100 tcp 1000 ------- 0 10.0 60.0 0 10
+ 0.1 11 100 tcp 1000 ------- 0 11.0 61.0 0 11
- 0.1 11 100 tcp 1000 ------- 0 11.0 61.0 0 11
+ 0.1 12 100 tcp 1000 ------- 0 12.0 62.0 0 12
- 0.1 12 100 tcp 1000 ------- 0 12.0 62.0 0 12
+ 0.1 13 100 tcp 1000 ------- 0 13.0 63.0 0 13
- 0.1 13 100 tcp 1000 ------- 0 13.0 63.0 0 13
+ 0.1 14 100 tcp 1000 ------- 0 14.0 64.0 0 14
- 0.1 14 100 tcp 1000 ------- 0 14.0 64.0 0 14
+ 0.1 15 100 tcp 1000 ------- 0 15.0 65.0 0 15
- 0.1 15 100 tcp 1000 ------- 0 15.0 65.0 0 15
+ 0.1 16 100 tcp 1000 ------- 0 16.0 66.0 0 16
- 0.1 16 100 tcp 1000 ------- 0 16.0 66.0 0 16
+ 0.1 17 100 tcp 1000 ------- 0 17.0 67.0 0 17
- 0.1 17 100 tcp 1000 ------- 0 17.0 67.0 0 17
+ 0.1 18 100 tcp 1000 ------- 0 18.0 68.0 0 18
- 0.1 18 100 tcp 1000 ------- 0 18.0 68.0 0 18
+ 0.1 19 100 tcp 1000 ------- 0 19.0 69.0 0 19
- 0.1 19 100 tcp 1000 ------- 0 19.0 69.0 0 19
+ 0.1 20 100 tcp 1000 ------- 0 20.0 70.0 0 20
- 0.1 20 100 tcp 1000 ------- 0 20.0 70.0 0 20
+ 0.1 21 100 tcp 1000 ------- 0 21.0 71.0 0 21
- 0.1 21 100 tcp 1000 ------- 0 21.0 71.0 0 21
+ 0.1 22 100 tcp 1000 ------- 0 22.0 72.0 0 22
- 0.1 22 100 tcp 1000 ------- 0 22.0 72.0 0 22
+ 0.1 23 100 tcp 1000 ------- 0 23.0 73.0 0 23
- 0.1 23 100 tcp 1000 ------- 0 23.0 73.0 0 23
+ 0.1 24 100 tcp 1000 ------- 0 24.0 74.0 0 24
- 0.1 24 100 tcp 1000 ------- 0 24.0 74.0 0 24
+ 0.1 25 100 tcp 1000 ------- 0 25.0 75.0 0 25
- 0.1 25 100 tcp 1000 ------- 0 25.0 75.0 0 25
+ 0.1 26 100 tcp 1000 ------- 0 26.0 76.0 0 26
- 0.1 26 100 tcp 1000 ------- 0 26.0 76.0 0 26
+ 0.1 27 100 tcp 1000 ------- 0 27.0 77.0 0 27
- 0.1 27 100 tcp 1000 ------- 0 27.0 77.0 0 27
+ 0.1 28 100 tcp 1000 ------- 0 28.0 78.0 0 28
- 0.1 28 100 tcp 1000 ------- 0 28.0 78.0 0 28
+ 0.1 29 100 tcp 1000 ------- 0 29.0 79.0 0 29
- 0.1 29 100 tcp 1000 ------- 0 29.0 79.0 0 29
+ 0.1 30 100 tcp 1000 ------- 0 30.0 80.0 0 30
- 0.1 30 100 tcp 1000 ------- 0 30.0 80.0 0 30
+ 0.1 31 100 tcp 1000 ------- 0 31.0 81.0 0 31
- 0.1 31 100 tcp 1000 ------- 0 31.0 81.0 0 31
+ 0.1 32 100 tcp 1000 ------- 0 32.0 82.0 0 32
- 0.1 32 100 tcp 1000 ------- 0 32.0 82.0 0 32
+ 0.1 33 100 tcp 1000 ------- 0 33.0 83.0 0 33
- 0.1 33 100 tcp 1000 ------- 0 33.0 83.0 0 33
+ 0.1 34 100 tcp 1000 ------- 0 34.0 84.0 0 34
- 0.1 34 100 tcp 1000 ------- 0 34.0 84.0 0 34
+ 0.1 35 100 tcp 1000 ------- 0 35.0 85.0 0 35
- 0.1 35 100 tcp 1000 ------- 0 35.0 85.0 0 35
+ 0.1 36 100 tcp 1000 ------- 0 36.0 86.0 0 36
- 0.1 36 100 tcp 1000 ------- 0 36.0 86.0 0 36
+ 0.1 37 100 tcp 1000 ------- 0 37.0 87.0 0 37
- 0.1 37 100 tcp 1000 ------- 0 37.0 87.0 0 37
+ 0.1 38 100 tcp 1000 ------- 0 38.0 88.0 0 38
- 0.1 38 100 tcp 1000 ------- 0 38.0 88.0 0 38
+ 0.1 39 100 tcp 1000 ------- 0 39.0 89.0 0 39
- 0.1 39 100 tcp 1000 ------- 0 39.0 89.0 0 39
+ 0.1 40 100 tcp 1000 ------- 0 40.0 90.0 0 40
- 0.1 40 100 tcp 1000 ------- 0 40.0 90.0 0 40
+ 0.1 41 100 tcp 1000 ------- 0 41.0 91.0 0 41
- 0.1 41 100 tcp 1000 ------- 0 41.0 91.0 0 41
+ 0.1 42 100 tcp 1000 ------- 0 42.0 92.0 0 42
- 0.1 42 100 tcp 1000 ------- 0 42.0 92.0 0 42
+ 0.1 43 100 tcp 1000 ------- 0 43.0 93.0 0 43
- 0.1 43 100 tcp 1000 ------- 0 43.0 93.0 0 43
+ 0.1 44 100 tcp 1000 ------- 0 44.0 94.0 0 44
- 0.1 44 100 tcp 1000 ------- 0 44.0 94.0 0 44
+ 0.1 45 100 tcp 1000 ------- 0 45.0 95.0 0 45
- 0.1 45 100 tcp 1000 ------- 0 45.0 95.0 0 45
+ 0.1 46 100 tcp 1000 ------- 0 46.0 96.0 0 46
- 0.1 46 100 tcp 1000 ------- 0 46.0 96.0 0 46
+ 0.1 47 100 tcp 1000 ------- 0 47.0 97.0 0 47
- 0.1 47 100 tcp 1000 ------- 0 47.0 97.0 0 47
+ 0.1 48 100 tcp 1000 ------- 0 48.0 98.0 0 48
- 0.1 48 100 tcp 1000 ------- 0 48.0 98.0 0 48
+ 0.1 49 100 tcp 1000 ------- 0 49.0 99.0 0 49
- 0.1 49 100 tcp 1000 ------- 0 49.0 99.0 0 49
r 0.1108 0 100 tcp 1000 ------- 0 0.0 50.0 0 0
+ 0.1108 100 101 tcp 1000 ------- 0 0.0 50.0 0 0
- 0.1108 100 101 tcp 1000 ------- 0 0.0 50.0 0 0
r 0.1108 1 100 tcp 1000 ------- 0 1.0 51.0 0 1
+ 0.1108 100 101 tcp 1000 ------- 0 1.0 51.0 0 1
r 0.1108 2 100 tcp 1000 ------- 0 2.0 52.0 0 2
+ 0.1108 100 101 tcp 1000 ------- 0 2.0 52.0 0 2
r 0.1108 3 100 tcp 1000 ------- 0 3.0 53.0 0 3
+ 0.1108 100 101 tcp 1000 ------- 0 3.0 53.0 0 3
r 0.1108 4 100 tcp 1000 ------- 0 4.0 54.0 0 4
+ 0.1108 100 101 tcp 1000 ------- 0 4.0 54.0 0 4
r 0.1108 5 100 tcp 1000 ------- 0 5.0 55.0 0 5
+ 0.1108 100 101 tcp 1000 ------- 0 5.0 55.0 0 5
r 0.1108 6 100 tcp 1000 ------- 0 6.0 56.0 0 6
+ 0.1108 100 101 tcp 1000 ------- 0 6.0 56.0 0 6
r 0.1108 7 100 tcp 1000 ------- 0 7.0 57.0 0 7
+ 0.1108 100 101 tcp 1000 ------- 0 7.0 57.0 0 7
r 0.1108 8 100 tcp 1000 ------- 0 8.0 58.0 0 8
+ 0.1108 100 101 tcp 1000 ------- 0 8.0 58.0 0 8
r 0.1108 9 100 tcp 1000 ------- 0 9.0 59.0 0 9
+ 0.1108 100 101 tcp 1000 ------- 0 9.0 59.0 0 9
r 0.1108 10 100 tcp 1000 ------- 0 10.0 60.0 0 10
+ 0.1108 100 101 tcp 1000 ------- 0 10.0 60.0 0 10
r 0.1108 11 100 tcp 1000 ------- 0 11.0 61.0 0 11
+ 0.1108 100 101 tcp 1000 ------- 0 11.0 61.0 0 11
r 0.1108 12 100 tcp 1000 ------- 0 12.0 62.0 0 12
+ 0.1108 100 101 tcp 1000 ------- 0 12.0 62.0 0 12
r 0.1108 13 100 tcp 1000 ------- 0 13.0 63.0 0 13
+ 0.1108 100 101 tcp 1000 ------- 0 13.0 63.0 0 13
r 0.1108 14 100 tcp 1000 ------- 0 14.0 64.0 0 14
+ 0.1108 100 101 tcp 1000 ------- 0 14.0 64.0 0 14
r 0.1108 15 100 tcp 1000 ------- 0 15.0 65.0 0 15
+ 0.1108 100 101 tcp 1000 ------- 0 15.0 65.0 0 15
r 0.1108 16 100 tcp 1000 ------- 0 16.0 66.0 0 16
+ 0.1108 100 101 tcp 1000 ------- 0 16.0 66.0 0 16
r 0.1108 17 100 tcp 1000 ------- 0 17.0 67.0 0 17
+ 0.1108 100 101 tcp 1000 ------- 0 17.0 67.0 0 17
r 0.1108 18 100 tcp 1000 ------- 0 18.0 68.0 0 18
+ 0.1108 100 101 tcp 1000 ------- 0 18.0 68.0 0 18
r 0.1108 19 100 tcp 1000 ------- 0 19.0 69.0 0 19
+ 0.1108 100 101 tcp 1000 ------- 0 19.0 69.0 0 19
r 0.1108 20 100 tcp 1000 ------- 0 20.0 70.0 0 20
+ 0.1108 100 101 tcp 1000 ------- 0 20.0 70.0 0 20
r 0.1108 21 100 tcp 1000 ------- 0 21.0 71.0 0 21
+ 0.1108 100 101 tcp 1000 ------- 0 21.0 71.0 0 21
r 0.1108 22 100 tcp 1000 ------- 0 22.0 72.0 0 22
+ 0.1108 100 101 tcp 1000 ------- 0 22.0 72.0 0 22
r 0.1108 23 100 tcp 1000 ------- 0 23.0 73.0 0 23
+ 0.1108 100 101 tcp 1000 ------- 0 23.0 73.0 0 23
r 0.1108 24 100 tcp 1000 ------- 0 24.0 74.0 0 24
+ 0.1108 100 101 tcp 1000 ------- 0 24.0 74.0 0 24
r 0.1108 25 100 tcp 1000 ------- 0 25.0 75.0 0 25
+ 0.1108 100 101 tcp 1000 ------- 0 25.0 75.0 0 25
r 0.1108 26 100 tcp 1000 ------- 0 26.0 76.0 0 26
+ 0.1108 100 101 tcp 1000 ------- 0 26.0 76.0 0 26
r 0.1108 27 100 tcp 1000 ------- 0 27.0 77.0 0 27
+ 0.1108 100 101 tcp 1000 ------- 0 27.0 77.0 0 27
r 0.1108 28 100 tcp 1000 ------- 0 28.0 78.0 0 28
+ 0.1108 100 101 tcp 1000 ------- 0 28.0 78.0 0 28
r 0.1108 29 100 tcp 1000 ------- 0 29.0 79.0 0 29
+ 0.1108 100 101 tcp 1000 ------- 0 29.0 79.0 0 29
r 0.1108 30 100 tcp 1000 ------- 0 30.0 80.0 0 30
+ 0.1108 100 101 tcp 1000 ------- 0 30.0 80.0 0 30
r 0.1108 31 100 tcp 1000 ------- 0 31.0 81.0 0 31
+ 0.1108 100 101 tcp 1000 ------- 0 31.0 81.0 0 31
r 0.1108 32 100 tcp 1000 ------- 0 32.0 82.0 0 32
+ 0.1108 100 101 tcp 1000 ------- 0 32.0 82.0 0 32
r 0.1108 33 100 tcp 1000 ------- 0 33.0 83.0 0 33
+ 0.1108 100 101 tcp 1000 ------- 0 33.0 83.0 0 33
r 0.1108 34 100 tcp 1000 ------- 0 34.0 84.0 0 34
+ 0.1108 100 101 tcp 1000 ------- 0 34.0 84.0 0 34
r 0.1108 35 100 tcp 1000 ------- 0 35.0 85.0 0 35
+ 0.1108 100 101 tcp 1000 ------- 0 35.0 85.0 0 35
r 0.1108 36 100 tcp 1000 ------- 0 36.0 86.0 0 36
+ 0.1108 100 101 tcp 1000 ------- 0 36.0 86.0 0 36
r 0.1108 37 100 tcp 1000 ------- 0 37.0 87.0 0 37
+ 0.1108 100 101 tcp 1000 ------- 0 37.0 87.0 0 37
r 0.1108 38 100 tcp 1000 ------- 0 38.0 88.0 0 38
+ 0.1108 100 101 tcp 1000 ------- 0 38.0 88.0 0 38
r 0.1108 39 100 tcp 1000 ------- 0 39.0 89.0 0 39
+ 0.1108 100 101 tcp 1000 ------- 0 39.0 89.0 0 39
r 0.1108 40 100 tcp 1000 ------- 0 40.0 90.0 0 40
+ 0.1108 100 101 tcp 1000 ------- 0 40.0 90.0 0 40
r 0.1108 41 100 tcp 1000 ------- 0 41.0 91.0 0 41
+ 0.1108 100 101 tcp 1000 ------- 0 41.0 91.0 0 41
r 0.1108 42 100 tcp 1000 ------- 0 42.0 92.0 0 42
+ 0.1108 100 101 tcp 1000 ------- 0 42.0 92.0 0 42
r 0.1108 43 100 tcp 1000 ------- 0 43.0 93.0 0 43
+ 0.1108 100 101 tcp 1000 ------- 0 43.0 93.0 0 43
r 0.1108 44 100 tcp 1000 ------- 0 44.0 94.0 0 44
+ 0.1108 100 101 tcp 1000 ------- 0 44.0 94.0 0 44
r 0.1108 45 100 tcp 1000 ------- 0 45.0 95.0 0 45
+ 0.1108 100 101 tcp 1000 ------- 0 45.0 95.0 0 45
r 0.1108 46 100 tcp 1000 ------- 0 46.0 96.0 0 46
+ 0.1108 100 101 tcp 1000 ------- 0 46.0 96.0 0 46
r 0.1108 47 100 tcp 1000 ------- 0 47.0 97.0 0 47
+ 0.1108 100 101 tcp 1000 ------- 0 47.0 97.0 0 47
r 0.1108 48 100 tcp 1000 ------- 0 48.0 98.0 0 48
+ 0.1108 100 101 tcp 1000 ------- 0 48.0 98.0 0 48
r 0.1108 49 100 tcp 1000 ------- 0 49.0 99.0 0 49
+ 0.1108 100 101 tcp 1000 ------- 0 49.0 99.0 0 49
- 0.1148 100 101 tcp 1000 ------- 0 1.0 51.0 0 1
- 0.1188 100 101 tcp 1000 ------- 0 2.0 52.0 0 2
- 0.1228 100 101 tcp 1000 ------- 0 3.0 53.0 0 3
- 0.1268 100 101 tcp 1000 ------- 0 4.0 54.0 0 4
- 0.1308 100 101 tcp 1000 ------- 0 5.0 55.0 0 5
- 0.1348 100 101 tcp 1000 ------- 0 6.0 56.0 0 6
- 0.1388 100 101 tcp 1000 ------- 0 7.0 57.0 0 7
- 0.1428 100 101 tcp 1000 ------- 0 8.0 58.0 0 8
- 0.1468 100 101 tcp 1000 ------- 0 9.0 59.0 0 9
- 0.1508 100 101 tcp 1000 ------- 0 10.0 60.0 0 10
- 0.1548 100 101 tcp 1000 ------- 0 11.0 61.0 0 11
- 0.1588 100 101 tcp 1000 ------- 0 12.0 62.0 0 12
- 0.1628 100 101 tcp 1000 ------- 0 13.0 63.0 0 13
r 0.1648 100 101 tcp 1000 ------- 0 0.0 50.0 0 0
+ 0.1648 101 50 tcp 1000 ------- 0 0.0 50.0 0 0
- 0.1648 101 50 tcp 1000 ------- 0 0.0 50.0 0 0
- 0.1668 100 101 tcp 1000 ------- 0 14.0 64.0 0 14
r 0.1688 100 101 tcp 1000 ------- 0 1.0 51.0 0 1
+ 0.1688 101 51 tcp 1000 ------- 0 1.0 51.0 0 1
- 0.1688 101 51 tcp 1000 ------- 0 1.0 51.0 0 1
- 0.1708 100 101 tcp 1000 ------- 0 15.0 65.0 0 15
r 0.1728 100 101 tcp 1000 ------- 0 2.0 52.0 0 2
+ 0.1728 101 52 tcp 1000 ------- 0 2.0 52.0 0 2
- 0.1728 101 52 tcp 1000 ------- 0 2.0 52.0 0 2
- 0.1748 100 101 tcp 1000 ------- 0 16.0 66.0 0 16
r 0.1756 101 50 tcp 1000 ------- 0 0.0 50.0 0 0
+ 0.1756 50 101 ack 40 ------- 0 50.0 0.0 0 50
- 0.1756 50 101 ack 40 ------- 0 50.0 0.0 0 50
r 0.1768 100 101 tcp 1000 ------- 0 3.0 53.0 0 3
+ 0.1768 101 53 tcp 1000 ------- 0 3.0 53.0 0 3
- 0.1768 101 53 tcp 1000 ------- 0 3.0 53.0 0 3
- 0.1788 100 101 tcp 1000 ------- 0 17.0 67.0 0 17
r 0.1796 101 51 tcp 1000 ------- 0 1.0 51.0 0 1
+ 0.1796 51 101 ack 40 ------- 0 51.0 1.0 0 51
- 0.1796 51 101 ack 40 ------- 0 51.0 1.0 0 51
r 0.1808 100 101 tcp 1000 ------- 0 4.0 54.0 0 4
+ 0.1808 101 54 tcp 1000 ------- 0 4.0 54.0 0 4
- 0.1808 101 54 tcp 1000 ------- 0 4.0 54.0 0 4
- 0.1828 100 101 tcp 1000 ------- 0 18.0 68.0 0 18
r 0.1836 101 52 tcp 1000 ------- 0 2.0 52.0 0 2
+ 0.1836 52 101 ack 40 ------- 0 52.0 2.0 0 52
- 0.1836 52 101 ack 40 ------- 0 52.0 2.0 0 52
r 0.1848 100 101 tcp 1000 ------- 0 5.0 55.0 0 5
+ 0.1848 101 55 tcp 1000 ------- 0 5.0 55.0 0 5
- 0.1848 101 55 tcp 1000 ------- 0 5.0 55.0 0 5
r 0.185632 50 101 ack 40 ------- 0 50.0 0.0 0 50
+ 0.185632 101 100 ack 40 ------- 0 50.0 0.0 0 50
- 0.185632 101 100 ack 40 ------- 0 50.0 0.0 0 50
- 0.1868 100 101 tcp 1000 ------- 0 19.0 69.0 0 19
r 0.1876 101 53 tcp 1000 ------- 0 3.0 53.0 0 3
+ 0.1876 53 101 ack 40 ------- 0 53.0 3.0 0 53
- 0.1876 53 101 ack 40 ------- 0 53.0 3.0 0 53
r 0.1888 100 101 tcp 1000 ------- 0 6.0 56.0 0 6
+ 0.1888 101 56 tcp 1000 ------- 0 6.0 56.0 0 6
- 0.1888 101 56 tcp 1000 ------- 0 6.0 56.0 0 6
r 0.189632 51 101 ack 40 ------- 0 51.0 1.0 0 51
+ 0.189632 101 100 ack 40 ------- 0 51.0 1.0 0 51
- 0.189632 101 100 ack 40 ------- 0 51.0 1.0 0 51
- 0.1908 100 101 tcp 1000 ------- 0 20.0 70.0 0 20
r 0.1916 101 54 tcp 1000 ------- 0 4.0 54.0 0 4
+ 0.1916 54 101 ack 40 ------- 0 54.0 4.0 0 54
- 0.1916 54 101 ack 40 ------- 0 54.0 4.0 0 54
r 0.1928 100 101 tcp 1000 ------- 0 7.0 57.0 0 7
+ 0.1928 101 57 tcp 1000 ------- 0 7.0 57.0 0 7
- 0.1928 101 57 tcp 1000 ------- 0 7.0 57.0 0 7
r 0.193632 52 101 ack 40 ------- 0 52.0 2.0 0 52
+ 0.193632 101 100 ack 40 ------- 0 52.0 2.0 0 52
- 0.193632 101 100 ack 40 ------- 0 52.0 2.0 0 52
- 0.1948 100 101 tcp 1000 ------- 0 21.0 71.0 0 21
r 0.1956 101 55 tcp 1000 ------- 0 5.0 55.0 0 5
+ 0.1956 55 101 ack 40 ------- 0 55.0 5.0 0 55
- 0.1956 55 101 ack 40 ------- 0 55.0 5.0 0 55
r 0.1968 100 101 tcp 1000 ------- 0 8.0 58.0 0 8
+ 0.1968 101 58 tcp 1000 ------- 0 8.0 58.0 0 8
- 0.1968 101 58 tcp 1000 ------- 0 8.0 58.0 0 8
r 0.197632 53 101 ack 40 ------- 0 53.0 3.0 0 53
+ 0.197632 101 100 ack 40 ------- 0 53.0 3.0 0 53
- 0.197632 101 100 ack 40 ------- 0 53.0 3.0 0 53
- 0.1988 100 101 tcp 1000 ------- 0 22.0 72.0 0 22
r 0.1996 101 56 tcp 1000 ------- 0 6.0 56.0 0 6
+ 0.1996 56 101 ack 40 ------- 0 56.0 6.0 0 56
- 0.1996 56 101 ack 40 ------- 0 56.0 6.0 0 56
r 0.2008 100 101 tcp 1000 ------- 0 9.0 59.0 0 9
+ 0.2008 101 59 tcp 1000 ------- 0 9.0 59.0 0 9
- 0.2008 101 59 tcp 1000 ------- 0 9.0 59.0 0 9
r 0.201632 54 101 ack 40 ------- 0 54.0 4.0 0 54
+ 0.201632 101 100 ack 40 ------- 0 54.0 4.0 0 54
- 0.201632 101 100 ack 40 ------- 0 54.0 4.0 0 54
- 0.2028 100 101 tcp 1000 ------- 0 23.0 73.0 0 23
r 0.2036 101 57 tcp 1000 ------- 0 7.0 57.0 0 7
+ 0.2036 57 101 ack 40 ------- 0 57.0 7.0 0 57
- 0.2036 57 101 ack 40 ------- 0 57.0 7.0 0 57
r 0.2048 100 101 tcp 1000 ------- 0 10.0 60.0 0 10
+ 0.2048 101 60 tcp 1000 ------- 0 10.0 60.0 0 10
- 0.2048 101 60 tcp 1000 ------- 0 10.0 60.0 0 10
r 0.205632 55 101 ack 40 ------- 0 55.0 5.0 0 55
+ 0.205632 101 100 ack 40 ------- 0 55.0 5.0 0 55
- 0.205632 101 100 ack 40 ------- 0 55.0 5.0 0 55
- 0.2068 100 101 tcp 1000 ------- 0 24.0 74.0 0 24
r 0.2076 101 58 tcp 1000 ------- 0 8.0 58.0 0 8
+ 0.2076 58 101 ack 40 ------- 0 58.0 8.0 0 58
- 0.2076 58 101 ack 40 ------- 0 58.0 8.0 0 58
r 0.2088 100 101 tcp 1000 ------- 0 11.0 61.0 0 11
+ 0.2088 101 61 tcp 1000 ------- 0 11.0 61.0 0 11
- 0.2088 101 61 tcp 1000 ------- 0 11.0 61.0 0 11
r 0.209632 56 101 ack 40 ------- 0 56.0 6.0 0 56
+ 0.209632 101 100 ack 40 ------- 0 56.0 6.0 0 56
- 0.209632 101 100 ack 40 ------- 0 56.0 6.0 0 56
- 0.2108 100 101 tcp 1000 ------- 0 25.0 75.0 0 25
r 0.2116 101 59 tcp 1000 ------- 0 9.0 59.0 0 9
+ 0.2116 59 101 ack 40 ------- 0 59.0 9.0 0 59
- 0.2116 59 101 ack 40 ------- 0 59.0 9.0 0 59
r 0.2128 100 101 tcp 1000 ------- 0 12.0 62.0 0 12
+ 0.2128 101 62 tcp 1000 ------- 0 12.0 62.0 0 12
- 0.2128 101 62 tcp 1000 ------- 0 12.0 62.0 0 12
r 0.213632 57 101 ack 40 ------- 0 57.0 7.0 0 57
+ 0.213632 101 100 ack 40 ------- 0 57.0 7.0 0 57
- 0.213632 101 100 ack 40 ------- 0 57.0 7.0 0 57
- 0.2148 100 101 tcp 1000 ------- 0 26.0 76.0 0 26
r 0.2156 101 60 tcp 1000 ------- 0 10.0 60.0 0 10
+ 0.2156 60 101 ack 40 ------- 0 60.0 10.0 0 60
- 0.2156 60 101 ack 40 ------- 0 60.0 10.0 0 60
r 0.2168 100 101 tcp 1000 ------- 0 13.0 63.0 0 13
+ 0.2168 101 63 tcp 1000 ------- 0 13.0 63.0 0 13
- 0.2168 101 63 tcp 1000 ------- 0 13.0 63.0 0 13
r 0.217632 58 101 ack 40 ------- 0 58.0 8.0 0 58
+ 0.217632 101 100 ack 40 ------- 0 58.0 8.0 0 58
- 0.217632 101 100 ack 40 ------- 0 58.0 8.0 0 58
- 0.2188 100 101 tcp 1000 ------- 0 27.0 77.0 0 27
r 0.2196 101 61 tcp 1000 ------- 0 11.0 61.0 0 11
+ 0.2196 61 101 ack 40 ------- 0 61.0 11.0 0 61
- 0.2196 61 101 ack 40 ------- 0 61.0 11.0 0 61
r 0.2208 100 101 tcp 1000 ------- 0 14.0 64.0 0 14
+ 0.2208 101 64 tcp 1000 ------- 0 14.0 64.0 0 14
- 0.2208 101 64 tcp 1000 ------- 0 14.0 64.0 0 14
r 0.221632 59 101 ack 40 ------- 0 59.0 9.0 0 59
+ 0.221632 101 100 ack 40 ------- 0 59.0 9.0 0 59
- 0.221632 101 100 ack 40 ------- 0 59.0 9.0 0 59
- 0.2228 100 101 tcp 1000 ------- 0 28.0 78.0 0 28
r 0.2236 101 62 tcp 1000 ------- 0 12.0 62.0 0 12
+ 0.2236 62 101 ack 40 ------- 0 62.0 12.0 0 62
- 0.2236 62 101 ack 40 ------- 0 62.0 12.0 0 62
r 0.2248 100 101 tcp 1000 ------- 0 15.0 65.0 0 15
+ 0.2248 101 65 tcp 1000 ------- 0 15.0 65.0 0 15
- 0.2248 101 65 tcp 1000 ------- 0 15.0 65.0 0 15
r 0.225632 60 101 ack 40 ------- 0 60.0 10.0 0 60
+ 0.225632 101 100 ack 40 ------- 0 60.0 10.0 0 60
- 0.225632 101 100 ack 40 ------- 0 60.0 10.0 0 60
- 0.2268 100 101 tcp 1000 ------- 0 29.0 79.0 0 29
r 0.2276 101 63 tcp 1000 ------- 0 13.0 63.0 0 13
+ 0.2276 63 101 ack 40 ------- 0 63.0 13.0 0 63
- 0.2276 63 101 ack 40 ------- 0 63.0 13.0 0 63
r 0.2288 100 101 tcp 1000 ------- 0 16.0 66.0 0 16
+ 0.2288 101 66 tcp 1000 ------- 0 16.0 66.0 0 16
- 0.2288 101 66 tcp 1000 ------- 0 16.0 66.0 0 16
r 0.229632 61 101 ack 40 ------- 0 61.0 11.0 0 61
+ 0.229632 101 100 ack 40 ------- 0 61.0 11.0 0 61
- 0.229632 101 100 ack 40 ------- 0 61.0 11.0 0 61
- 0.2308 100 101 tcp 1000 ------- 0 30.0 80.0 0 30
r 0.2316 101 64 tcp 1000 ------- 0 14.0 64.0 0 14
+ 0.2316 64 101 ack 40 ------- 0 64.0 14.0 0 64
- 0.2316 64 101 ack 40 ------- 0 64.0 14.0 0 64
r 0.2328 100 101 tcp 1000 ------- 0 17.0 67.0 0 17
+ 0.2328 101 67 tcp 1000 ------- 0 17.0 67.0 0 17
- 0.2328 101 67 tcp 1000 ------- 0 17.0 67.0 0 17
r 0.233632 62 101 ack 40 ------- 0 62.0 12.0 0 62
+ 0.233632 101 100 ack 40 ------- 0 62.0 12.0 0 62
- 0.233632 101 100 ack 40 ------- 0 62.0 12.0 0 62
- 0.2348 100 101 tcp 1000 ------- 0 31.0 81.0 0 31
r 0.2356 101 65 tcp 1000 ------- 0 15.0 65.0 0 15
+ 0.2356 65 101 ack 40 ------- 0 65.0 15.0 0 65
- 0.2356 65 101 ack 40 ------- 0 65.0 15.0 0 65
r 0.235792 101 100 ack 40 ------- 0 50.0 0.0 0 50
+ 0.235792 100 0 ack 40 ------- 0 50.0 0.0 0 50
- 0.235792 100 0 ack 40 ------- 0 50.0 0.0 0 50
r 0.2368 100 101 tcp 1000 ------- 0 18.0 68.0 0 18
+ 0.2368 101 68 tcp 1000 ------- 0 18.0 68.0 0 18
- 0.2368 101 68 tcp 1000 ------- 0 18.0 68.0 0 18
r 0.237632 63 101 ack 40 ------- 0 63.0 13.0 0 63
+ 0.237632 101 100 ack 40 ------- 0 63.0 13.0 0 63
- 0.237632 101 100 ack 40 ------- 0 63.0 13.0 0 63
- 0.2388 100 101 tcp 1000 ------- 0 32.0 82.0 0 32
r 0.2396 101 66 tcp 1000 ------- 0 16.0 66.0 0 16
+ 0.2396 66 101 ack 40 ------- 0 66.0 16.0 0 66
- 0.2396 66 101 ack 40 ------- 0 66.0 16.0 0 66
r 0.239792 101 100 ack 40 ------- 0 51.0 1.0 0 51
+ 0.239792 100 1 ack 40 ------- 0 51.0 1.0 0 51
- 0.239792 100 1 ack 40 ------- 0 51.0 1.0 0 51
r 0.2408 100 101 tcp 1000 ------- 0 19.0 69.0 0 19
+ 0.2408 101 69 tcp 1000 ------- 0 19.0 69.0 0 19
- 0.2408 101 69 tcp 1000 ------- 0 19.0 69.0 0 19
r 0.241632 64 101 ack 40 ------- 0 64.0 14.0 0 64
+ 0.241632 101 100 ack 40 ------- 0 64.0 14.0 0 64
- 0.241632 101 100 ack 40 ------- 0 64.0 14.0 0 64
- 0.2428 100 101 tcp 1000 ------- 0 33.0 83.0 0 33
r 0.2436 101 67 tcp 1000 ------- 0 17.0 67.0 0 17
+ 0.2436 67 101 ack 40 ------- 0 67.0 17.0 0 67
- 0.2436 67 101 ack 40 ------- 0 67.0 17.0 0 67
r 0.243792 101 100 ack 40 ------- 0 52.0 2.0 0 52
+ 0.243792 100 2 ack 40 ------- 0 52.0 2.0 0 52
- 0.243792 100 2 ack 40 ------- 0 52.0 2.0 0 52
r 0.2448 100 101 tcp 1000 ------- 0 20.0 70.0 0 20
+ 0.2448 101 70 tcp 1000 ------- 0 20.0 70.0 0 20
- 0.2448 101 70 tcp 1000 ------- 0 20.0 70.0 0 20
r 0.245632 65 101 ack 40 ------- 0 65.0 15.0 0 65
+ 0.245632 101 100 ack 40 ------- 0 65.0 15.0 0 65
- 0.245632 101 100 ack 40 ------- 0 65.0 15.0 0 65
r 0.245824 100 0 ack 40 ------- 0 50.0 0.0 0 50
+ 0.245824 0 100 tcp 1000 ------- 0 0.0 50.0 1 68
- 0.245824 0 100 tcp 1000 ------- 0 0.0 50.0 1 68
- 0.2468 100 101 tcp 1000 ------- 0 34.0 84.0 0 34
r 0.2476 101 68 tcp 1000 ------- 0 18.0 68.0 0 18
+ 0.2476 68 101 ack 40 ------- 0 68.0 18.0 0 69
- 0.2476 68 101 ack 40 ------- 0 68.0 18.0 0 69
r 0.247792 101 100 ack 40 ------- 0 53.0 3.0 0 53
+ 0.247792 100 3 ack 40 ------- 0 53.0 3.0 0 53
- 0.247792 100 3 ack 40 ------- 0 53.0 3.0 0 53
r 0.2488 100 101 tcp 1000 ------- 0 21.0 71.0 0 21
+ 0.2488 101 71 tcp 1000 ------- 0 21.0 71.0 0 21
- 0.2488 101 71 tcp 1000 ------- 0 21.0 71.0 0 21
r 0.249632 66 101 ack 40 ------- 0 66.0 16.0 0 66
+ 0.249632 101 100 ack 40 ------- 0 66.0 16.0 0 66
- 0.249632 101 100 ack 40 ------- 0 66.0 16.0 0 66
r 0.249824 100 1 ack 40 ------- 0 51.0 1.0 0 51
+ 0.249824 1 100 tcp 1000 ------- 0 1.0 51.0 1 70
- 0.249824 1 100 tcp 1000 ------- 0 1.0 51.0 1 70
- 0.2508 100 101 tcp 1000 ------- 0 35.0 85.0 0 35
r 0.2516 101 69 tcp 1000 ------- 0 19.0 69.0 0 19
+ 0.2516 69 101 ack 40 ------- 0 69.0 19.0 0 71
- 0.2516 69 101 ack 40 ------- 0 69.0 19.0 0 71
r 0.251792 101 100 ack 40 ------- 0 54.0 4.0 0 54
+ 0.251792 100 4 ack 40 ------- 0 54.0 4.0 0 54
- 0.251792 100 4 ack 40 ------- 0 54.0 4.0 0 54
r 0.2528 100 101 tcp 1000 ------- 0 22.0 72.0 0 22
+ 0.2528 101 72 tcp 1000 ------- 0 22.0 72.0 0 22
- 0.2528 101 72 tcp 1000 ------- 0 22.0 72.0 0 22
r 0.253632 67 101 ack 40 ------- 0 67.0 17.0 0 67
+ 0.253632 101 100 ack 40 ------- 0 67.0 17.0 0 67
- 0.253632 101 100 ack 40 ------- 0 67.0 17.0 0 67
r 0.253824 100 2 ack 40 ------- 0 52.0 2.0 0 52
+ 0.253824 2 100 tcp 1000 ------- 0 2.0 52.0 1 72
- 0.253824 2 100 tcp 1000 ------- 0 2.0 52.0 1 72
- 0.2548 100 101 tcp 1000 ------- 0 36.0 86.0 0 36
r 0.2556 101 70 tcp 1000 ------- 0 20.0 70.0 0 20
+ 0.2556 70 101 ack 40 ------- 0 70.0 20.0 0 73
- 0.2556 70 101 ack 40 ------- 0 70.0 20.0 0 73
r 0.255792 101 100 ack 40 ------- 0 55.0 5.0 0 55
+ 0.255792 100 5 ack 40 ------- 0 55.0 5.0 0 55
- 0.255792 100 5 ack 40 ------- 0 55.0 5.0 0 55
r 0.256624 0 100 tcp 1000 ------- 0 0.0 50.0 1 68
+ 0.256624 100 101 tcp 1000 ------- 0 0.0 50.0 1 68
r 0.2568 100 101 tcp 1000 ------- 0 23.0 73.0 0 23
+ 0.2568 101 73 tcp 1000 ------- 0 23.0 73.0 0 23
- 0.2568 101 73 tcp 1000 ------- 0 23.0 73.0 0 23
r 0.257632 68 101 ack 40 ------- 0 68.0 18.0 0 69
+ 0.257632 101 100 ack 40 ------- 0 68.0 18.0 0 69
- 0.257632 101 100 ack 40 ------- 0 68.0 18.0 0 69
r 0.257824 100 3 ack 40 ------- 0 53.0 3.0 0 53
+ 0.257824 3 100 tcp 1000 ------- 0 3.0 53.0 1 74
- 0.257824 3 100 tcp 1000 ------- 0 3.0 53.0 1 74
- 0.2588 100 101 tcp 1000 ------- 0 37.0 87.0 0 37
r 0.2596 101 71 tcp 1000 ------- 0 21.0 71.0 0 21
+ 0.2596 71 101 ack 40 ------- 0 71.0 21.0 0 75
- 0.2596 71 101 ack 40 ------- 0 71.0 21.0 0 75
r 0.259792 101 100 ack 40 ------- 0 56.0 6.0 0 56
+ 0.259792 100 6 ack 40 ------- 0 56.0 6.0 0 56
- 0.259792 100 6 ack 40 ------- 0 56.0 6.0 0 56
r 0.260624 1 100 tcp 1000 ------- 0 1.0 51.0 1 70
+ 0.260624 100 101 tcp 1000 ------- 0 1.0 51.0 1 70
r 0.2608 100 101 tcp 1000 ------- 0 24.0 74.0 0 24
+ 0.2608 101 74 tcp 1000 ------- 0 24.0 74.0 0 24
- 0.2608 101 74 tcp 1000 ------- 0 24.0 74.0 0 24
r 0.261632 69 101 ack 40 ------- 0 69.0 19.0 0 71
+ 0.261632 101 100 ack 40 ------- 0 69.0 19.0 0 71
- 0.261632 101 100 ack 40 ------- 0 69.0 19.0 0 71
r 0.261824 100 4 ack 40 ------- 0 54.0 4.0 0 54
+ 0.261824 4 100 tcp 1000 ------- 0 4.0 54.0 1 76
- 0.261824 4 100 tcp 1000 ------- 0 4.0 54.0 1 76
- 0.2628 100 101 tcp 1000 ------- 0 38.0 88.0 0 38
r 0.2636 101 72 tcp 1000 ------- 0 22.0 72.0 0 22
+ 0.2636 72 101 ack 40 ------- 0 72.0 22.0 0 77
- 0.2636 72 101 ack 40 ------- 0 72.0 22.0 0 77
r 0.263792 101 100 ack 40 ------- 0 57.0 7.0 0 57
+ 0.263792 100 7 ack 40 ------- 0 57.0 7.0 0 57
- 0.263792 100 7 ack 40 ------- 0 57.0 7.0 0 57
r 0.264624 2 100 tcp 1000 ------- 0 2.0 52.0 1 72
+ 0.264624 100 101 tcp 1000 ------- 0 2.0 52.0 1 72
r 0.2648 100 101 tcp 1000 ------- 0 25.0 75.0 0 25
+ 0.2648 101 75 tcp 1000 ------- 0 25.0 75.0 0 25
- 0.2648 101 75 tcp 1000 ------- 0 25.0 75.0 0 25
r 0.265632 70 101 ack 40 ------- 0 70.0 20.0 0 73
+ 0.265632 101 100 ack 40 ------- 0 70.0 20.0 0 73
- 0.265632 101 100 ack 40 ------- 0 70.0 20.0 0 73
r 0.265824 100 5 ack 40 ------- 0 55.0 5.0 0 55
+ 0.265824 5 100 tcp 1000 ------- 0 5.0 55.0 1 78
- 0.265824 5 100 tcp 1000 ------- 0 5.0 55.0 1 78
- 0.2668 100 101 tcp 1000 ------- 0 39.0 89.0 0 39
r 0.2676 101 73 tcp 1000 ------- 0 23.0 73.0 0 23
+ 0.2676 73 101 ack 40 ------- 0 73.0 23.0 0 79
- 0.2676 73 101 ack 40 ------- 0 73.0 23.0 0 79
r 0.267792 101 100 ack 40 ------- 0 58.0 8.0 0 58
+ 0.267792 100 8 ack 40 ------- 0 58.0 8.0 0 58
- 0.267792 100 8 ack 40 ------- 0 58.0 8.0 0 58
r 0.268624 3 100 tcp 1000 ------- 0 3.0 53.0 1 74
+ 0.268624 100 101 tcp 1000 ------- 0 3.0 53.0 1 74
r 0.2688 100 101 tcp 1000 ------- 0 26.0 76.0 0 26
+ 0.2688 101 76 tcp 1000 ------- 0 26.0 76.0 0 26
- 0.2688 101 76 tcp 1000 ------- 0 26.0 76.0 0 26
r 0.269632 71 101 ack 40 ------- 0 71.0 21.0 0 75
+ 0.269632 101 100 ack 40 ------- 0 71.0 21.0 0 75
- 0.269632 101 100 ack 40 ------- 0 71.0 21.0 0 75
r 0.269824 100 6 ack 40 ------- 0 56.0 6.0 0 56
+ 0.269824 6 100 tcp 1000 ------- 0 6.0 56.0 1 80
- 0.269824 6 100 tcp 1000 ------- 0 6.0 56.0 1 80
- 0.2708 100 101 tcp 1000 ------- 0 40.0 90.0 0 40
r 0.2716 101 74 tcp 1000 ------- 0 24.0 74.0 0 24
+ 0.2716 74 101 ack 40 ------- 0 74.0 24.0 0 81
- 0.2716 74 101 ack 40 ------- 0 74.0 24.0 0 81
r 0.271792 101 100 ack 40 ------- 0 59.0 9.0 0 59
+ 0.271792 100 9 ack 40 ------- 0 59.0 9.0 0 59
- 0.271792 100 9 ack 40 ------- 0 59.0 9.0 0 59
r 0.272624 4 100 tcp 1000 ------- 0 4.0 54.0 1 76
+ 0.272624 100 101 tcp 1000 ------- 0 4.0 54.0 1 76
r 0.2728 100 101 tcp 1000 ------- 0 27.0 77.0 0 27
+ 0.2728 101 77 tcp 1000 ------- 0 27.0 77.0 0 27
- 0.2728 101 77 tcp 1000 ------- 0 27.0 77.0 0 27
r 0.273632 72 101 ack 40 ------- 0 72.0 22.0 0 77
+ 0.273632 101 100 ack 40 ------- 0 72.0 22.0 0 77
- 0.273632 101 100 ack 40 ------- 0 72.0 22.0 0 77
r 0.273824 100 7 ack 40 ------- 0 57.0 7.0 0 57
+ 0.273824 7 100 tcp 1000 ------- 0 7.0 57.0 1 82
- 0.273824 7 100 tcp 1000 ------- 0 7.0 57.0 1 82
- 0.2748 100 101 tcp 1000 ------- 0 41.0 91.0 0 41
r 0.2756 101 75 tcp 1000 ------- 0 25.0 75.0 0 25
+ 0.2756 75 101 ack 40 ------- 0 75.0 25.0 0 83
- 0.2756 75 101 ack 40 ------- 0 75.0 25.0 0 83
r 0.275792 101 100 ack 40 ------- 0 60.0 10.0 0 60
+ 0.275792 100 10 ack 40 ------- 0 60.0 10.0 0 60
- 0.275792 100 10 ack 40 ------- 0 60.0 10.0 0 60
r 0.276624 5 100 tcp 1000 ------- 0 5.0 55.0 1 78
+ 0.276624 100 101 tcp 1000 ------- 0 5.0 55.0 1 78
r 0.2768 100 101 tcp 1000 ------- 0 28.0 78.0 0 28
+ 0.2768 101 78 tcp 1000 ------- 0 28.0 78.0 0 28
- 0.2768 101 78 tcp 1000 ------- 0 28.0 78.0 0 28
r 0.277632 73 101 ack 40 ------- 0 73.0 23.0 0 79
+ 0.277632 101 100 ack 40 ------- 0 73.0 23.0 0 79
- 0.277632 101 100 ack 40 ------- 0 73.0 23.0 0 79
r 0.277824 100 8 ack 40 ------- 0 58.0 8.0 0 58
+ 0.277824 8 100 tcp 1000 ------- 0 8.0 58.0 1 84
- 0.277824 8 100 tcp 1000 ------- 0 8.0 58.0 1 84
- 0.2788 100 101 tcp 1000 ------- 0 42.0 92.0 0 42
r 0.2796 101 76 tcp 1000 ------- 0 26.0 76.0 0 26
+ 0.2796 76 101 ack 40 ------- 0 76.0 26.0 0 85
- 0.2796 76 101 ack 40 ------- 0 76.0 26.0 0 85
r 0.279792 101 100 ack 40 ------- 0 61.0 11.0 0 61
+ 0.279792 100 11 ack 40 ------- 0 61.0 11.0 0 61
- 0.279792 100 11 ack 40 ------- 0 61.0 11.0 0 61
r 0.280624 6 100 tcp 1000 ------- 0 6.0 56.0 1 80
+ 0.280624 100 101 tcp 1000 ------- 0 6.0 56.0 1 80
r 0.2808 100 101 tcp 1000 ------- 0 29.0 79.0 0 29
+ 0.2808 101 79 tcp 1000 ------- 0 29.0 79.0 0 29
- 0.2808 101 79 tcp 1000 ------- 0 29.0 79.0 0 29
r 0.281632 74 101 ack 40 ------- 0 74.0 24.0 0 81
+ 0.281632 101 100 ack 40 ------- 0 74.0 24.0 0 81
- 0.281632 101 100 ack 40 ------- 0 74.0 24.0 0 81
r 0.281824 100 9 ack 40 ------- 0 59.0 9.0 0 59
+ 0.281824 9 100 tcp 1000 ------- 0 9.0 59.0 1 86
- 0.281824 9 100 tcp 1000 ------- 0 9.0 59.0 1 86
- 0.2828 100 101 tcp 1000 ------- 0 43.0 93.0 0 43
r 0.2836 101 77 tcp 1000 ------- 0 27.0 77.0 0 27
+ 0.2836 77 101 ack 40 ------- 0 77.0 27.0 0 87
- 0.2836 77 101 ack 40 ------- 0 77.0 27.0 0 87
r 0.283792 101 100 ack 40 ------- 0 62.0 12.0 0 62
+ 0.283792 100 12 ack 40 ------- 0 62.0 12.0 0 62
- 0.283792 100 12 ack 40 ------- 0 62.0 12.0 0 62
r 0.284624 7 100 tcp 1000 ------- 0 7.0 57.0 1 82
+ 0.284624 100 101 tcp 1000 ------- 0 7.0 57.0 1 82
r 0.2848 100 101 tcp 1000 ------- 0 30.0 80.0 0 30
+ 0.2848 101 80 tcp 1000 ------- 0 30.0 80.0 0 30
- 0.2848 101 80 tcp 1000 ------- 0 30.0 80.0 0 30
r 0.285632 75 101 ack 40 ------- 0 75.0 25.0 0 83
+ 0.285632 101 100 ack 40 ------- 0 75.0 25.0 0 83
- 0.285632 101 100 ack 40 ------- 0 75.0 25.0 0 83
r 0.285824 100 10 ack 40 ------- 0 60.0 10.0 0 60
+ 0.285824 10 100 tcp 1000 ------- 0 10.0 60.0 1 88
- 0.285824 10 100 tcp 1000 ------- 0 10.0 60.0 1 88
- 0.2868 100 101 tcp 1000 ------- 0 44.0 94.0 0 44
r 0.2876 101 78 tcp 1000 ------- 0 28.0 78.0 0 28
+ 0.2876 78 101 ack 40 ------- 0 78.0 28.0 0 89
- 0.2876 78 101 ack 40 ------- 0 78.0 28.0 0 89
r 0.287792 101 100 ack 40 ------- 0 63.0 13.0 0 63
+ 0.287792 100 13 ack 40 ------- 0 63.0 13.0 0 63
- 0.287792 100 13 ack 40 ------- 0 63.0 13.0 0 63
r 0.288624 8 100 tcp 1000 ------- 0 8.0 58.0 1 84
+ 0.288624 100 101 tcp 1000 ------- 0 8.0 58.0 1 84
r 0.2888 100 101 tcp 1000 ------- 0 31.0 81.0 0 31
+ 0.2888 101 81 tcp 1000 ------- 0 31.0 81.0 0 31
- 0.2888 101 81 tcp 1000 ------- 0 31.0 81.0 0 31
r 0.289632 76 101 ack 40 ------- 0 76.0 26.0 0 85
+ 0.289632 101 100 ack 40 ------- 0 76.0 26.0 0 85
- 0.289632 101 100 ack 40 ------- 0 76.0 26.0 0 85
r 0.289824 100 11 ack 40 ------- 0 61.0 11.0 0 61
+ 0.289824 11 100 tcp 1000 ------- 0 11.0 61.0 1 90
- 0.289824 11 100 tcp 1000 ------- 0 11.0 61.0 1 90
- 0.2908 100 101 tcp 1000 ------- 0 45.0 95.0 0 45
r 0.2916 101 79 tcp 1000 ------- 0 29.0 79.0 0 29
+ 0.2916 79 101 ack 40 ------- 0 79.0 29.0 0 91
- 0.2916 79 101 ack 40 ------- 0 79.0 29.0 0 91
r 0.291792 101 100 ack 40 ------- 0 64.0 14.0 0 64