+ 0.1 0 100 tcp 40 ------- 0 0.0 50.0 0 0
- 0.1 0 100 tcp 40 ------- 0 0.0 50.0 0 0
+ 0.1 1 100 tcp 40 ------- 0 1.0 51.0 0 1
- 0.1 1 100 tcp 40 ------- 0 1.0 51.0 0 1
+ 0.1 2 100 tcp 40 ------- 0 2.0 52.0 0 2
- 0.1 2 100 tcp 40 ------- 0 2.0 52.0 0 2
+ 0.1 3 100 tcp 40 ------- 0 3.0 53.0 0 3
- 0.1 3 100 tcp 40 ------- 0 3.0 53.0 0 3
+ 0.1 4 100 tcp 40 ------- 0 4.0 54.0 0 4
- 0.1 4 100 tcp 40 ------- 0 4.0 54.0 0 4
+ 0.1 5 100 tcp 40 ------- 0 5.0 55.0 0 5
- 0.1 5 100 tcp 40 ------- 0 5.0 55.0 0 5
+ 0.1 6 100 tcp 40 ------- 0 6.0 56.0 0 6
- 0.1 6 100 tcp 40 ------- 0 6.0 56.0 0 6
+ 0.1 7 100 tcp 40 ------- 0 7.0 57.0 0 7
- 0.1 7 100 tcp 40 ------- 0 7.0 57.0 0 7
+ 0.1 8 100 tcp 40 ------- 0 8.0 58.0 0 8
- 0.1 8 100 tcp 40 ------- 0 8.0 58.0 0 8
+ 0.1 9 100 tcp 40 ------- 0 9.0 59.0 0 9
- 0.1 9 100 tcp 40 ------- 0 9.0 59.0 0 9
+ 0.1 10 100 tcp 40 ------- 0 10.0 60.0 0 10
- 0.1 10 100 tcp 40 ------- 0 10.0 60.0 0 10
+ 0.1 11 100 tcp 40 ------- 0 11.0 61.0 0 11
- 0.1 11 100 tcp 40 ------- 0 11.0 61.0 0 11
+ 0.1 12 100 tcp 40 ------- 0 12.0 62.0 0 12
- 0.1 12 100 tcp 40 ------- 0 12.0 62.0 0 12
+ 0.1 13 100 tcp 40 ------- 0 13.0 63.0 0 13
- 0.1 13 100 tcp 40 ------- 0 13.0 63.0 0 13
+ 0.1 14 100 tcp 40 ------- 0 14.0 64.0 0 14
- 0.1 14 100 tcp 40 ------- 0 14.0 64.0 0 14
+ 0.1 15 100 tcp 40 ------- 0 15.0 65.0 0 15
- 0.1 15 100 tcp 40 ------- 0 15.0 65.0 0 15
+ 0.1 16 100 tcp 40 ------- 0 16.0 66.0 0 16
- 0.1 16 100 tcp 40 ------- 0 16.0 66.0 0 16
+ 0.1 17 100 tcp 40 ------- 0 17.0 67.0 0 17
- 0.1 17 100 tcp 40 ------- 0 17.0 67.0 0 17
+ 0.1 18 100 tcp 40 ------- 0 18.0 68.0 0 18
- 0.1 18 100 tcp 40 ------- 0 18.0 68.0 0 18
+ 0.1 19 100 tcp 40 ------- 0 19.0 69.0 0 19
- 0.1 19 100 tcp 40 ------- 0 19.0 69.0 0 19
+ 0.1 20 100 tcp 40 ------- 0 20.0 70.0 0 20
- 0.1 20 100 tcp 40 ------- 0 20.0 70.0 0 20
+ 0.1 21 100 tcp 40 ------- 0 21.0 71.0 0 21
- 0.1 21 100 tcp 40 ------- 0 21.0 71.0 0 21
+ 0.1 22 100 tcp 40 ------- 0 22.0 72.0 0 22
- 0.1 22 100 tcp 40 ------- 0 22.0 72.0 0 22
+ 0.1 23 100 tcp 40 ------- 0 23.0 73.0 0 23
- 0.1 23 100 tcp 40 ------- 0 23.0 73.0 0 23
+ 0.1 24 100 tcp 40 ------- 0 24.0 74.0 0 24
- 0.1 24 100 tcp 40 ------- 0 24.0 74.0 0 24
+ 0.1 25 100 tcp 40 ------- 0 25.0 75.0 0 25
- 0.1 25 100 tcp 40 ------- 0 25.0 75.0 0 25
+ 0.1 26 100 tcp 40 ------- 0 26.0 76.0 0 26
- 0.1 26 100 tcp 40 ------- 0 26.0 76.0 0 26
+ 0.1 27 100 tcp 40 ------- 0 27.0 77.0 0 27
- 0.1 27 100 tcp 40 ------- 0 27.0 77.0 0 27
+ 0.1 28 100 tcp 40 ------- 0 28.0 78.0 0 28
- 0.1 28 100 tcp 40 ------- 0 28.0 78.0 0 28
+ 0.1 29 100 tcp 40 ------- 0 29.0 79.0 0 29
- 0.1 29 100 tcp 40 ------- 0 29.0 79.0 0 29
+ 0.1 30 100 tcp 40 ------- 0 30.0 80.0 0 30
- 0.1 30 100 tcp 40 ------- 0 30.0 80.0 0 30
+ 0.1 31 100 tcp 40 ------- 0 31.0 81.0 0 31
- 0.1 31 100 tcp 40 ------- 0 31.0 81.0 0 31
+ 0.1 32 100 tcp 40 ------- 0 32.0 82.0 0 32
- 0.1 32 100 tcp 40 ------- 0 32.0 82.0 0 32
+ 0.1 33 100 tcp 40 ------- 0 33.0 83.0 0 33
- 0.1 33 100 tcp 40 ------- 0 33.0 83.0 0 33
+ 0.1 34 100 tcp 40 ------- 0 34.0 84.0 0 34
- 0.1 34 100 tcp 40 ------- 0 34.0 84.0 0 34
+ 0.1 35 100 tcp 40 ------- 0 35.0 85.0 0 35
- 0.1 35 100 tcp 40 ------- 0 35.0 85.0 0 35
+ 0.1 36 100 tcp 40 ------- 0 36.0 86.0 0 36
- 0.1 36 100 tcp 40 ------- 0 36.0 86.0 0 36
+ 0.1 37 100 tcp 40 ------- 0 37.0 87.0 0 37
- 0.1 37 100 tcp 40 ------- 0 37.0 87.0 0 37
+ 0.1 38 100 tcp 40 ------- 0 38.0 88.0 0 38
- 0.1 38 100 tcp 40 ------- 0 38.0 88.0 0 38
+ 0.1 39 100 tcp 40 ------- 0 39.0 89.0 0 39
- 0.1 39 100 tcp 40 ------- 0 39.0 89.0 0 39
+ 0.1 40 100 tcp 40 ------- 0 40.0 90.0 0 40
- 0.1 40 100 tcp 40 ------- 0 40.0 90.0 0 40
+ 0.1 41 100 tcp 40 ------- 0 41.0 91.0 0 41
- 0.1 41 100 tcp 40 ------- 0 41.0 91.0 0 41
+ 0.1 42 100 tcp 40 ------- 0 42.0 92.0 0 42
- 0.1 42 100 tcp 40 ------- 0 42.0 92.0 0 42
+ 0.1 43 100 tcp 40 ------- 0 43.0 93.0 0 43
- 0.1 43 100 tcp 40 ------- 0 43.0 93.0 0 43
+ 0.1 44 100 tcp 40 ------- 0 44.0 94.0 0 44
- 0.1 44 100 tcp 40 ------- 0 44.0 94.0 0 44
+ 0.1 45 100 tcp 40 ------- 0 45.0 95.0 0 45
- 0.1 45 100 tcp 40 ------- 0 45.0 95.0 0 45
+ 0.1 46 100 tcp 40 ------- 0 46.0 96.0 0 46
- 0.1 46 100 tcp 40 ------- 0 46.0 96.0 0 46
+ 0.1 47 100 tcp 40 ------- 0 47.0 97.0 0 47
- 0.1 47 100 tcp 40 ------- 0 47.0 97.0 0 47
+ 0.1 48 100 tcp 40 ------- 0 48.0 98.0 0 48
- 0.1 48 100 tcp 40 ------- 0 48.0 98.0 0 48
+ 0.1 49 100 tcp 40 ------- 0 49.0 99.0 0 49
- 0.1 49 100 tcp 40 ------- 0 49.0 99.0 0 49
r 0.110032 0 100 tcp 40 ------- 0 0.0 50.0 0 0
+ 0.110032 100 101 tcp 40 ------- 0 0.0 50.0 0 0
- 0.110032 100 101 tcp 40 ------- 0 0.0 50.0 0 0
r 0.110032 1 100 tcp 40 ------- 0 1.0 51.0 0 1
+ 0.110032 100 101 tcp 40 ------- 0 1.0 51.0 0 1
r 0.110032 2 100 tcp 40 ------- 0 2.0 52.0 0 2
+ 0.110032 100 101 tcp 40 ------- 0 2.0 52.0 0 2
r 0.110032 3 100 tcp 40 ------- 0 3.0 53.0 0 3
+ 0.110032 100 101 tcp 40 ------- 0 3.0 53.0 0 3
r 0.110032 4 100 tcp 40 ------- 0 4.0 54.0 0 4
+ 0.110032 100 101 tcp 40 ------- 0 4.0 54.0 0 4
r 0.110032 5 100 tcp 40 ------- 0 5.0 55.0 0 5
+ 0.110032 100 101 tcp 40 ------- 0 5.0 55.0 0 5
r 0.110032 6 100 tcp 40 ------- 0 6.0 56.0 0 6
+ 0.110032 100 101 tcp 40 ------- 0 6.0 56.0 0 6
r 0.110032 7 100 tcp 40 ------- 0 7.0 57.0 0 7
+ 0.110032 100 101 tcp 40 ------- 0 7.0 57.0 0 7
r 0.110032 8 100 tcp 40 ------- 0 8.0 58.0 0 8
+ 0.110032 100 101 tcp 40 ------- 0 8.0 58.0 0 8
r 0.110032 9 100 tcp 40 ------- 0 9.0 59.0 0 9
+ 0.110032 100 101 tcp 40 ------- 0 9.0 59.0 0 9
r 0.110032 10 100 tcp 40 ------- 0 10.0 60.0 0 10
+ 0.110032 100 101 tcp 40 ------- 0 10.0 60.0 0 10
r 0.110032 11 100 tcp 40 ------- 0 11.0 61.0 0 11
+ 0.110032 100 101 tcp 40 ------- 0 11.0 61.0 0 11
r 0.110032 12 100 tcp 40 ------- 0 12.0 62.0 0 12
+ 0.110032 100 101 tcp 40 ------- 0 12.0 62.0 0 12
r 0.110032 13 100 tcp 40 ------- 0 13.0 63.0 0 13
+ 0.110032 100 101 tcp 40 ------- 0 13.0 63.0 0 13
r 0.110032 14 100 tcp 40 ------- 0 14.0 64.0 0 14
+ 0.110032 100 101 tcp 40 ------- 0 14.0 64.0 0 14
r 0.110032 15 100 tcp 40 ------- 0 15.0 65.0 0 15
+ 0.110032 100 101 tcp 40 ------- 0 15.0 65.0 0 15
r 0.110032 16 100 tcp 40 ------- 0 16.0 66.0 0 16
+ 0.110032 100 101 tcp 40 ------- 0 16.0 66.0 0 16
r 0.110032 17 100 tcp 40 ------- 0 17.0 67.0 0 17
+ 0.110032 100 101 tcp 40 ------- 0 17.0 67.0 0 17
r 0.110032 18 100 tcp 40 ------- 0 18.0 68.0 0 18
+ 0.110032 100 101 tcp 40 ------- 0 18.0 68.0 0 18
r 0.110032 19 100 tcp 40 ------- 0 19.0 69.0 0 19
+ 0.110032 100 101 tcp 40 ------- 0 19.0 69.0 0 19
r 0.110032 20 100 tcp 40 ------- 0 20.0 70.0 0 20
+ 0.110032 100 101 tcp 40 ------- 0 20.0 70.0 0 20
r 0.110032 21 100 tcp 40 ------- 0 21.0 71.0 0 21
+ 0.110032 100 101 tcp 40 ------- 0 21.0 71.0 0 21
r 0.110032 22 100 tcp 40 ------- 0 22.0 72.0 0 22
+ 0.110032 100 101 tcp 40 ------- 0 22.0 72.0 0 22
r 0.110032 23 100 tcp 40 ------- 0 23.0 73.0 0 23
+ 0.110032 100 101 tcp 40 ------- 0 23.0 73.0 0 23
r 0.110032 24 100 tcp 40 ------- 0 24.0 74.0 0 24
+ 0.110032 100 101 tcp 40 ------- 0 24.0 74.0 0 24
r 0.110032 25 100 tcp 40 ------- 0 25.0 75.0 0 25
+ 0.110032 100 101 tcp 40 ------- 0 25.0 75.0 0 25
r 0.110032 26 100 tcp 40 ------- 0 26.0 76.0 0 26
+ 0.110032 100 101 tcp 40 ------- 0 26.0 76.0 0 26
r 0.110032 27 100 tcp 40 ------- 0 27.0 77.0 0 27
+ 0.110032 100 101 tcp 40 ------- 0 27.0 77.0 0 27
r 0.110032 28 100 tcp 40 ------- 0 28.0 78.0 0 28
+ 0.110032 100 101 tcp 40 ------- 0 28.0 78.0 0 28
r 0.110032 29 100 tcp 40 ------- 0 29.0 79.0 0 29
+ 0.110032 100 101 tcp 40 ------- 0 29.0 79.0 0 29
r 0.110032 30 100 tcp 40 ------- 0 30.0 80.0 0 30
+ 0.110032 100 101 tcp 40 ------- 0 30.0 80.0 0 30
r 0.110032 31 100 tcp 40 ------- 0 31.0 81.0 0 31
+ 0.110032 100 101 tcp 40 ------- 0 31.0 81.0 0 31
r 0.110032 32 100 tcp 40 ------- 0 32.0 82.0 0 32
+ 0.110032 100 101 tcp 40 ------- 0 32.0 82.0 0 32
r 0.110032 33 100 tcp 40 ------- 0 33.0 83.0 0 33
+ 0.110032 100 101 tcp 40 ------- 0 33.0 83.0 0 33
r 0.110032 34 100 tcp 40 ------- 0 34.0 84.0 0 34
+ 0.110032 100 101 tcp 40 ------- 0 34.0 84.0 0 34
r 0.110032 35 100 tcp 40 ------- 0 35.0 85.0 0 35
+ 0.110032 100 101 tcp 40 ------- 0 35.0 85.0 0 35
r 0.110032 36 100 tcp 40 ------- 0 36.0 86.0 0 36
+ 0.110032 100 101 tcp 40 ------- 0 36.0 86.0 0 36
r 0.110032 37 100 tcp 40 ------- 0 37.0 87.0 0 37
+ 0.110032 100 101 tcp 40 ------- 0 37.0 87.0 0 37
r 0.110032 38 100 tcp 40 ------- 0 38.0 88.0 0 38
+ 0.110032 100 101 tcp 40 ------- 0 38.0 88.0 0 38
r 0.110032 39 100 tcp 40 ------- 0 39.0 89.0 0 39
+ 0.110032 100 101 tcp 40 ------- 0 39.0 89.0 0 39
r 0.110032 40 100 tcp 40 ------- 0 40.0 90.0 0 40
+ 0.110032 100 101 tcp 40 ------- 0 40.0 90.0 0 40
r 0.110032 41 100 tcp 40 ------- 0 41.0 91.0 0 41
+ 0.110032 100 101 tcp 40 ------- 0 41.0 91.0 0 41
r 0.110032 42 100 tcp 40 ------- 0 42.0 92.0 0 42
+ 0.110032 100 101 tcp 40 ------- 0 42.0 92.0 0 42
r 0.110032 43 100 tcp 40 ------- 0 43.0 93.0 0 43
+ 0.110032 100 101 tcp 40 ------- 0 43.0 93.0 0 43
r 0.110032 44 100 tcp 40 ------- 0 44.0 94.0 0 44
+ 0.110032 100 101 tcp 40 ------- 0 44.0 94.0 0 44
r 0.110032 45 100 tcp 40 ------- 0 45.0 95.0 0 45
+ 0.110032 100 101 tcp 40 ------- 0 45.0 95.0 0 45
r 0.110032 46 100 tcp 40 ------- 0 46.0 96.0 0 46
+ 0.110032 100 101 tcp 40 ------- 0 46.0 96.0 0 46
r 0.110032 47 100 tcp 40 ------- 0 47.0 97.0 0 47
+ 0.110032 100 101 tcp 40 ------- 0 47.0 97.0 0 47
r 0.110032 48 100 tcp 40 ------- 0 48.0 98.0 0 48
+ 0.110032 100 101 tcp 40 ------- 0 48.0 98.0 0 48
r 0.110032 49 100 tcp 40 ------- 0 49.0 99.0 0 49
+ 0.110032 100 101 tcp 40 ------- 0 49.0 99.0 0 49
- 0.110192 100 101 tcp 40 ------- 0 1.0 51.0 0 1
- 0.110352 100 101 tcp 40 ------- 0 2.0 52.0 0 2
- 0.110512 100 101 tcp 40 ------- 0 3.0 53.0 0 3
- 0.110672 100 101 tcp 40 ------- 0 4.0 54.0 0 4
- 0.110832 100 101 tcp 40 ------- 0 5.0 55.0 0 5
- 0.110992 100 101 tcp 40 ------- 0 6.0 56.0 0 6
- 0.111152 100 101 tcp 40 ------- 0 7.0 57.0 0 7
- 0.111312 100 101 tcp 40 ------- 0 8.0 58.0 0 8
- 0.111472 100 101 tcp 40 ------- 0 9.0 59.0 0 9
- 0.111632 100 101 tcp 40 ------- 0 10.0 60.0 0 10
- 0.111792 100 101 tcp 40 ------- 0 11.0 61.0 0 11
- 0.111952 100 101 tcp 40 ------- 0 12.0 62.0 0 12
- 0.112112 100 101 tcp 40 ------- 0 13.0 63.0 0 13
- 0.112272 100 101 tcp 40 ------- 0 14.0 64.0 0 14
- 0.112432 100 101 tcp 40 ------- 0 15.0 65.0 0 15
- 0.112592 100 101 tcp 40 ------- 0 16.0 66.0 0 16
- 0.112752 100 101 tcp 40 ------- 0 17.0 67.0 0 17
- 0.112912 100 101 tcp 40 ------- 0 18.0 68.0 0 18
- 0.113072 100 101 tcp 40 ------- 0 19.0 69.0 0 19
- 0.113232 100 101 tcp 40 ------- 0 20.0 70.0 0 20
- 0.113392 100 101 tcp 40 ------- 0 21.0 71.0 0 21
- 0.113552 100 101 tcp 40 ------- 0 22.0 72.0 0 22
- 0.113712 100 101 tcp 40 ------- 0 23.0 73.0 0 23
- 0.113872 100 101 tcp 40 ------- 0 24.0 74.0 0 24
- 0.114032 100 101 tcp 40 ------- 0 25.0 75.0 0 25
- 0.114192 100 101 tcp 40 ------- 0 26.0 76.0 0 26
- 0.114352 100 101 tcp 40 ------- 0 27.0 77.0 0 27
- 0.114512 100 101 tcp 40 ------- 0 28.0 78.0 0 28
- 0.114672 100 101 tcp 40 ------- 0 29.0 79.0 0 29
- 0.114832 100 101 tcp 40 ------- 0 30.0 80.0 0 30
- 0.114992 100 101 tcp 40 ------- 0 31.0 81.0 0 31
- 0.115152 100 101 tcp 40 ------- 0 32.0 82.0 0 32
- 0.115312 100 101 tcp 40 ------- 0 33.0 83.0 0 33
- 0.115472 100 101 tcp 40 ------- 0 34.0 84.0 0 34
- 0.115632 100 101 tcp 40 ------- 0 35.0 85.0 0 35
- 0.115792 100 101 tcp 40 ------- 0 36.0 86.0 0 36
- 0.115952 100 101 tcp 40 ------- 0 37.0 87.0 0 37
- 0.116112 100 101 tcp 40 ------- 0 38.0 88.0 0 38
- 0.116272 100 101 tcp 40 ------- 0 39.0 89.0 0 39
- 0.116432 100 101 tcp 40 ------- 0 40.0 90.0 0 40
- 0.116592 100 101 tcp 40 ------- 0 41.0 91.0 0 41
- 0.116752 100 101 tcp 40 ------- 0 42.0 92.0 0 42
- 0.116912 100 101 tcp 40 ------- 0 43.0 93.0 0 43
- 0.117072 100 101 tcp 40 ------- 0 44.0 94.0 0 44
- 0.117232 100 101 tcp 40 ------- 0 45.0 95.0 0 45
- 0.117392 100 101 tcp 40 ------- 0 46.0 96.0 0 46
- 0.117552 100 101 tcp 40 ------- 0 47.0 97.0 0 47
- 0.117712 100 101 tcp 40 ------- 0 48.0 98.0 0 48
- 0.117872 100 101 tcp 40 ------- 0 49.0 99.0 0 49
r 0.160192 100 101 tcp 40 ------- 0 0.0 50.0 0 0
+ 0.160192 101 50 tcp 40 ------- 0 0.0 50.0 0 0
- 0.160192 101 50 tcp 40 ------- 0 0.0 50.0 0 0
r 0.160352 100 101 tcp 40 ------- 0 1.0 51.0 0 1
+ 0.160352 101 51 tcp 40 ------- 0 1.0 51.0 0 1
- 0.160352 101 51 tcp 40 ------- 0 1.0 51.0 0 1
r 0.160512 100 101 tcp 40 ------- 0 2.0 52.0 0 2
+ 0.160512 101 52 tcp 40 ------- 0 2.0 52.0 0 2
- 0.160512 101 52 tcp 40 ------- 0 2.0 52.0 0 2
r 0.160672 100 101 tcp 40 ------- 0 3.0 53.0 0 3
+ 0.160672 101 53 tcp 40 ------- 0 3.0 53.0 0 3
- 0.160672 101 53 tcp 40 ------- 0 3.0 53.0 0 3
r 0.160832 100 101 tcp 40 ------- 0 4.0 54.0 0 4
+ 0.160832 101 54 tcp 40 ------- 0 4.0 54.0 0 4
- 0.160832 101 54 tcp 40 ------- 0 4.0 54.0 0 4
r 0.160992 100 101 tcp 40 ------- 0 5.0 55.0 0 5
+ 0.160992 101 55 tcp 40 ------- 0 5.0 55.0 0 5
- 0.160992 101 55 tcp 40 ------- 0 5.0 55.0 0 5
r 0.161152 100 101 tcp 40 ------- 0 6.0 56.0 0 6
+ 0.161152 101 56 tcp 40 ------- 0 6.0 56.0 0 6
- 0.161152 101 56 tcp 40 ------- 0 6.0 56.0 0 6
r 0.161312 100 101 tcp 40 ------- 0 7.0 57.0 0 7
+ 0.161312 101 57 tcp 40 ------- 0 7.0 57.0 0 7
- 0.161312 101 57 tcp 40 ------- 0 7.0 57.0 0 7
r 0.161472 100 101 tcp 40 ------- 0 8.0 58.0 0 8
+ 0.161472 101 58 tcp 40 ------- 0 8.0 58.0 0 8
- 0.161472 101 58 tcp 40 ------- 0 8.0 58.0 0 8
r 0.161632 100 101 tcp 40 ------- 0 9.0 59.0 0 9
+ 0.161632 101 59 tcp 40 ------- 0 9.0 59.0 0 9
- 0.161632 101 59 tcp 40 ------- 0 9.0 59.0 0 9
r 0.161792 100 101 tcp 40 ------- 0 10.0 60.0 0 10
+ 0.161792 101 60 tcp 40 ------- 0 10.0 60.0 0 10
- 0.161792 101 60 tcp 40 ------- 0 10.0 60.0 0 10
r 0.161952 100 101 tcp 40 ------- 0 11.0 61.0 0 11
+ 0.161952 101 61 tcp 40 ------- 0 11.0 61.0 0 11
- 0.161952 101 61 tcp 40 ------- 0 11.0 61.0 0 11
r 0.162112 100 101 tcp 40 ------- 0 12.0 62.0 0 12
+ 0.162112 101 62 tcp 40 ------- 0 12.0 62.0 0 12
- 0.162112 101 62 tcp 40 ------- 0 12.0 62.0 0 12
r 0.162272 100 101 tcp 40 ------- 0 13.0 63.0 0 13
+ 0.162272 101 63 tcp 40 ------- 0 13.0 63.0 0 13
- 0.162272 101 63 tcp 40 ------- 0 13.0 63.0 0 13
r 0.162432 100 101 tcp 40 ------- 0 14.0 64.0 0 14
+ 0.162432 101 64 tcp 40 ------- 0 14.0 64.0 0 14
- 0.162432 101 64 tcp 40 ------- 0 14.0 64.0 0 14
r 0.162592 100 101 tcp 40 ------- 0 15.0 65.0 0 15
+ 0.162592 101 65 tcp 40 ------- 0 15.0 65.0 0 15
- 0.162592 101 65 tcp 40 ------- 0 15.0 65.0 0 15
r 0.162752 100 101 tcp 40 ------- 0 16.0 66.0 0 16
+ 0.162752 101 66 tcp 40 ------- 0 16.0 66.0 0 16
- 0.162752 101 66 tcp 40 ------- 0 16.0 66.0 0 16
r 0.162912 100 101 tcp 40 ------- 0 17.0 67.0 0 17
+ 0.162912 101 67 tcp 40 ------- 0 17.0 67.0 0 17
- 0.162912 101 67 tcp 40 ------- 0 17.0 67.0 0 17
r 0.163072 100 101 tcp 40 ------- 0 18.0 68.0 0 18
+ 0.163072 101 68 tcp 40 ------- 0 18.0 68.0 0 18
- 0.163072 101 68 tcp 40 ------- 0 18.0 68.0 0 18
r 0.163232 100 101 tcp 40 ------- 0 19.0 69.0 0 19
+ 0.163232 101 69 tcp 40 ------- 0 19.0 69.0 0 19
- 0.163232 101 69 tcp 40 ------- 0 19.0 69.0 0 19
r 0.163392 100 101 tcp 40 ------- 0 20.0 70.0 0 20
+ 0.163392 101 70 tcp 40 ------- 0 20.0 70.0 0 20
- 0.163392 101 70 tcp 40 ------- 0 20.0 70.0 0 20
r 0.163552 100 101 tcp 40 ------- 0 21.0 71.0 0 21
+ 0.163552 101 71 tcp 40 ------- 0 21.0 71.0 0 21
- 0.163552 101 71 tcp 40 ------- 0 21.0 71.0 0 21
r 0.163712 100 101 tcp 40 ------- 0 22.0 72.0 0 22
+ 0.163712 101 72 tcp 40 ------- 0 22.0 72.0 0 22
- 0.163712 101 72 tcp 40 ------- 0 22.0 72.0 0 22
r 0.163872 100 101 tcp 40 ------- 0 23.0 73.0 0 23
+ 0.163872 101 73 tcp 40 ------- 0 23.0 73.0 0 23
- 0.163872 101 73 tcp 40 ------- 0 23.0 73.0 0 23
r 0.164032 100 101 tcp 40 ------- 0 24.0 74.0 0 24
+ 0.164032 101 74 tcp 40 ------- 0 24.0 74.0 0 24
- 0.164032 101 74 tcp 40 ------- 0 24.0 74.0 0 24
r 0.164192 100 101 tcp 40 ------- 0 25.0 75.0 0 25
+ 0.164192 101 75 tcp 40 ------- 0 25.0 75.0 0 25
- 0.164192 101 75 tcp 40 ------- 0 25.0 75.0 0 25
r 0.164352 100 101 tcp 40 ------- 0 26.0 76.0 0 26
+ 0.164352 101 76 tcp 40 ------- 0 26.0 76.0 0 26
- 0.164352 101 76 tcp 40 ------- 0 26.0 76.0 0 26
r 0.164512 100 101 tcp 40 ------- 0 27.0 77.0 0 27
+ 0.164512 101 77 tcp 40 ------- 0 27.0 77.0 0 27
- 0.164512 101 77 tcp 40 ------- 0 27.0 77.0 0 27
r 0.164672 100 101 tcp 40 ------- 0 28.0 78.0 0 28
+ 0.164672 101 78 tcp 40 ------- 0 28.0 78.0 0 28
- 0.164672 101 78 tcp 40 ------- 0 28.0 78.0 0 28
r 0.164832 100 101 tcp 40 ------- 0 29.0 79.0 0 29
+ 0.164832 101 79 tcp 40 ------- 0 29.0 79.0 0 29
- 0.164832 101 79 tcp 40 ------- 0 29.0 79.0 0 29
r 0.164992 100 101 tcp 40 ------- 0 30.0 80.0 0 30
+ 0.164992 101 80 tcp 40 ------- 0 30.0 80.0 0 30
- 0.164992 101 80 tcp 40 ------- 0 30.0 80.0 0 30
r 0.165152 100 101 tcp 40 ------- 0 31.0 81.0 0 31
+ 0.165152 101 81 tcp 40 ------- 0 31.0 81.0 0 31
- 0.165152 101 81 tcp 40 ------- 0 31.0 81.0 0 31
r 0.165312 100 101 tcp 40 ------- 0 32.0 82.0 0 32
+ 0.165312 101 82 tcp 40 ------- 0 32.0 82.0 0 32
- 0.165312 101 82 tcp 40 ------- 0 32.0 82.0 0 32
r 0.165472 100 101 tcp 40 ------- 0 33.0 83.0 0 33
+ 0.165472 101 83 tcp 40 ------- 0 33.0 83.0 0 33
- 0.165472 101 83 tcp 40 ------- 0 33.0 83.0 0 33
r 0.165632 100 101 tcp 40 ------- 0 34.0 84.0 0 34
+ 0.165632 101 84 tcp 40 ------- 0 34.0 84.0 0 34
- 0.165632 101 84 tcp 40 ------- 0 34.0 84.0 0 34
r 0.165792 100 101 tcp 40 ------- 0 35.0 85.0 0 35
+ 0.165792 101 85 tcp 40 ------- 0 35.0 85.0 0 35
- 0.165792 101 85 tcp 40 ------- 0 35.0 85.0 0 35
r 0.165952 100 101 tcp 40 ------- 0 36.0 86.0 0 36
+ 0.165952 101 86 tcp 40 ------- 0 36.0 86.0 0 36
- 0.165952 101 86 tcp 40 ------- 0 36.0 86.0 0 36
r 0.166112 100 101 tcp 40 ------- 0 37.0 87.0 0 37
+ 0.166112 101 87 tcp 40 ------- 0 37.0 87.0 0 37
- 0.166112 101 87 tcp 40 ------- 0 37.0 87.0 0 37
r 0.166272 100 101 tcp 40 ------- 0 38.0 88.0 0 38
+ 0.166272 101 88 tcp 40 ------- 0 38.0 88.0 0 38
- 0.166272 101 88 tcp 40 ------- 0 38.0 88.0 0 38
r 0.166432 100 101 tcp 40 ------- 0 39.0 89.0 0 39
+ 0.166432 101 89 tcp 40 ------- 0 39.0 89.0 0 39
- 0.166432 101 89 tcp 40 ------- 0 39.0 89.0 0 39
r 0.166592 100 101 tcp 40 ------- 0 40.0 90.0 0 40
+ 0.166592 101 90 tcp 40 ------- 0 40.0 90.0 0 40
- 0.166592 101 90 tcp 40 ------- 0 40.0 90.0 0 40
r 0.166752 100 101 tcp 40 ------- 0 41.0 91.0 0 41
+ 0.166752 101 91 tcp 40 ------- 0 41.0 91.0 0 41
- 0.166752 101 91 tcp 40 ------- 0 41.0 91.0 0 41
r 0.166912 100 101 tcp 40 ------- 0 42.0 92.0 0 42
+ 0.166912 101 92 tcp 40 ------- 0 42.0 92.0 0 42
- 0.166912 101 92 tcp 40 ------- 0 42.0 92.0 0 42
r 0.167072 100 101 tcp 40 ------- 0 43.0 93.0 0 43
+ 0.167072 101 93 tcp 40 ------- 0 43.0 93.0 0 43
- 0.167072 101 93 tcp 40 ------- 0 43.0 93.0 0 43
r 0.167232 100 101 tcp 40 ------- 0 44.0 94.0 0 44
+ 0.167232 101 94 tcp 40 ------- 0 44.0 94.0 0 44
- 0.167232 101 94 tcp 40 ------- 0 44.0 94.0 0 44
r 0.167392 100 101 tcp 40 ------- 0 45.0 95.0 0 45
+ 0.167392 101 95 tcp 40 ------- 0 45.0 95.0 0 45
- 0.167392 101 95 tcp 40 ------- 0 45.0 95.0 0 45
r 0.167552 100 101 tcp 40 ------- 0 46.0 96.0 0 46
+ 0.167552 101 96 tcp 40 ------- 0 46.0 96.0 0 46
- 0.167552 101 96 tcp 40 ------- 0 46.0 96.0 0 46
r 0.167712 100 101 tcp 40 ------- 0 47.0 97.0 0 47
+ 0.167712 101 97 tcp 40 ------- 0 47.0 97.0 0 47
- 0.167712 101 97 tcp 40 ------- 0 47.0 97.0 0 47
r 0.167872 100 101 tcp 40 ------- 0 48.0 98.0 0 48
+ 0.167872 101 98 tcp 40 ------- 0 48.0 98.0 0 48
- 0.167872 101 98 tcp 40 ------- 0 48.0 98.0 0 48
r 0.168032 100 101 tcp 40 ------- 0 49.0 99.0 0 49
+ 0.168032 101 99 tcp 40 ------- 0 49.0 99.0 0 49
- 0.168032 101 99 tcp 40 ------- 0 49.0 99.0 0 49
r 0.170224 101 50 tcp 40 ------- 0 0.0 50.0 0 0
+ 0.170224 50 101 ack 40 ------- 0 50.0 0.0 0 50
- 0.170224 50 101 ack 40 ------- 0 50.0 0.0 0 50
r 0.170384 101 51 tcp 40 ------- 0 1.0 51.0 0 1
+ 0.170384 51 101 ack 40 ------- 0 51.0 1.0 0 51
- 0.170384 51 101 ack 40 ------- 0 51.0 1.0 0 51
r 0.170544 101 52 tcp 40 ------- 0 2.0 52.0 0 2
+ 0.170544 52 101 ack 40 ------- 0 52.0 2.0 0 52
- 0.170544 52 101 ack 40 ------- 0 52.0 2.0 0 52
r 0.170704 101 53 tcp 40 ------- 0 3.0 53.0 0 3
+ 0.170704 53 101 ack 40 ------- 0 53.0 3.0 0 53
- 0.170704 53 101 ack 40 ------- 0 53.0 3.0 0 53
r 0.170864 101 54 tcp 40 ------- 0 4.0 54.0 0 4
+ 0.170864 54 101 ack 40 ------- 0 54.0 4.0 0 54
- 0.170864 54 101 ack 40 ------- 0 54.0 4.0 0 54
r 0.171024 101 55 tcp 40 ------- 0 5.0 55.0 0 5
+ 0.171024 55 101 ack 40 ------- 0 55.0 5.0 0 55
- 0.171024 55 101 ack 40 ------- 0 55.0 5.0 0 55
r 0.171184 101 56 tcp 40 ------- 0 6.0 56.0 0 6
+ 0.171184 56 101 ack 40 ------- 0 56.0 6.0 0 56
- 0.171184 56 101 ack 40 ------- 0 56.0 6.0 0 56
r 0.171344 101 57 tcp 40 ------- 0 7.0 57.0 0 7
+ 0.171344 57 101 ack 40 ------- 0 57.0 7.0 0 57
- 0.171344 57 101 ack 40 ------- 0 57.0 7.0 0 57
r 0.171504 101 58 tcp 40 ------- 0 8.0 58.0 0 8
+ 0.171504 58 101 ack 40 ------- 0 58.0 8.0 0 58
- 0.171504 58 101 ack 40 ------- 0 58.0 8.0 0 58
r 0.171664 101 59 tcp 40 ------- 0 9.0 59.0 0 9
+ 0.171664 59 101 ack 40 ------- 0 59.0 9.0 0 59
- 0.171664 59 101 ack 40 ------- 0 59.0 9.0 0 59
r 0.171824 101 60 tcp 40 ------- 0 10.0 60.0 0 10
+ 0.171824 60 101 ack 40 ------- 0 60.0 10.0 0 60
- 0.171824 60 101 ack 40 ------- 0 60.0 10.0 0 60
r 0.171984 101 61 tcp 40 ------- 0 11.0 61.0 0 11
+ 0.171984 61 101 ack 40 ------- 0 61.0 11.0 0 61
- 0.171984 61 101 ack 40 ------- 0 61.0 11.0 0 61
r 0.172144 101 62 tcp 40 ------- 0 12.0 62.0 0 12
+ 0.172144 62 101 ack 40 ------- 0 62.0 12.0 0 62
- 0.172144 62 101 ack 40 ------- 0 62.0 12.0 0 62
r 0.172304 101 63 tcp 40 ------- 0 13.0 63.0 0 13
+ 0.172304 63 101 ack 40 ------- 0 63.0 13.0 0 63
- 0.172304 63 101 ack 40 ------- 0 63.0 13.0 0 63
r 0.172464 101 64 tcp 40 ------- 0 14.0 64.0 0 14
+ 0.172464 64 101 ack 40 ------- 0 64.0 14.0 0 64
- 0.172464 64 101 ack 40 ------- 0 64.0 14.0 0 64
r 0.172624 101 65 tcp 40 ------- 0 15.0 65.0 0 15
+ 0.172624 65 101 ack 40 ------- 0 65.0 15.0 0 65
- 0.172624 65 101 ack 40 ------- 0 65.0 15.0 0 65
r 0.172784 101 66 tcp 40 ------- 0 16.0 66.0 0 16
+ 0.172784 66 101 ack 40 ------- 0 66.0 16.0 0 66
- 0.172784 66 101 ack 40 ------- 0 66.0 16.0 0 66
r 0.172944 101 67 tcp 40 ------- 0 17.0 67.0 0 17
+ 0.172944 67 101 ack 40 ------- 0 67.0 17.0 0 67
- 0.172944 67 101 ack 40 ------- 0 67.0 17.0 0 67
r 0.173104 101 68 tcp 40 ------- 0 18.0 68.0 0 18
+ 0.173104 68 101 ack 40 ------- 0 68.0 18.0 0 68
- 0.173104 68 101 ack 40 ------- 0 68.0 18.0 0 68
r 0.173264 101 69 tcp 40 ------- 0 19.0 69.0 0 19
+ 0.173264 69 101 ack 40 ------- 0 69.0 19.0 0 69
- 0.173264 69 101 ack 40 ------- 0 69.0 19.0 0 69
r 0.173424 101 70 tcp 40 ------- 0 20.0 70.0 0 20
+ 0.173424 70 101 ack 40 ------- 0 70.0 20.0 0 70
- 0.173424 70 101 ack 40 ------- 0 70.0 20.0 0 70
r 0.173584 101 71 tcp 40 ------- 0 21.0 71.0 0 21
+ 0.173584 71 101 ack 40 ------- 0 71.0 21.0 0 71
- 0.173584 71 101 ack 40 ------- 0 71.0 21.0 0 71
r 0.173744 101 72 tcp 40 ------- 0 22.0 72.0 0 22
+ 0.173744 72 101 ack 40 ------- 0 72.0 22.0 0 72
- 0.173744 72 101 ack 40 ------- 0 72.0 22.0 0 72
r 0.173904 101 73 tcp 40 ------- 0 23.0 73.0 0 23
+ 0.173904 73 101 ack 40 ------- 0 73.0 23.0 0 73
- 0.173904 73 101 ack 40 ------- 0 73.0 23.0 0 73
r 0.174064 101 74 tcp 40 ------- 0 24.0 74.0 0 24
+ 0.174064 74 101 ack 40 ------- 0 74.0 24.0 0 74
- 0.174064 74 101 ack 40 ------- 0 74.0 24.0 0 74
r 0.174224 101 75 tcp 40 ------- 0 25.0 75.0 0 25
+ 0.174224 75 101 ack 40 ------- 0 75.0 25.0 0 75
- 0.174224 75 101 ack 40 ------- 0 75.0 25.0 0 75
r 0.174384 101 76 tcp 40 ------- 0 26.0 76.0 0 26
+ 0.174384 76 101 ack 40 ------- 0 76.0 26.0 0 76
- 0.174384 76 101 ack 40 ------- 0 76.0 26.0 0 76
r 0.174544 101 77 tcp 40 ------- 0 27.0 77.0 0 27
+ 0.174544 77 101 ack 40 ------- 0 77.0 27.0 0 77
- 0.174544 77 101 ack 40 ------- 0 77.0 27.0 0 77
r 0.174704 101 78 tcp 40 ------- 0 28.0 78.0 0 28
+ 0.174704 78 101 ack 40 ------- 0 78.0 28.0 0 78
- 0.174704 78 101 ack 40 ------- 0 78.0 28.0 0 78
r 0.174864 101 79 tcp 40 ------- 0 29.0 79.0 0 29
+ 0.174864 79 101 ack 40 ------- 0 79.0 29.0 0 79
- 0.174864 79 101 ack 40 ------- 0 79.0 29.0 0 79
r 0.175024 101 80 tcp 40 ------- 0 30.0 80.0 0 30
+ 0.175024 80 101 ack 40 ------- 0 80.0 30.0 0 80
- 0.175024 80 101 ack 40 ------- 0 80.0 30.0 0 80
r 0.175184 101 81 tcp 40 ------- 0 31.0 81.0 0 31
+ 0.175184 81 101 ack 40 ------- 0 81.0 31.0 0 81
- 0.175184 81 101 ack 40 ------- 0 81.0 31.0 0 81
r 0.175344 101 82 tcp 40 ------- 0 32.0 82.0 0 32
+ 0.175344 82 101 ack 40 ------- 0 82.0 32.0 0 82
- 0.175344 82 101 ack 40 ------- 0 82.0 32.0 0 82
r 0.175504 101 83 tcp 40 ------- 0 33.0 83.0 0 33
+ 0.175504 83 101 ack 40 ------- 0 83.0 33.0 0 83
- 0.175504 83 101 ack 40 ------- 0 83.0 33.0 0 83
r 0.175664 101 84 tcp 40 ------- 0 34.0 84.0 0 34
+ 0.175664 84 101 ack 40 ------- 0 84.0 34.0 0 84
- 0.175664 84 101 ack 40 ------- 0 84.0 34.0 0 84
r 0.175824 101 85 tcp 40 ------- 0 35.0 85.0 0 35
+ 0.175824 85 101 ack 40 ------- 0 85.0 35.0 0 85
- 0.175824 85 101 ack 40 ------- 0 85.0 35.0 0 85
r 0.175984 101 86 tcp 40 ------- 0 36.0 86.0 0 36
+ 0.175984 86 101 ack 40 ------- 0 86.0 36.0 0 86
- 0.175984 86 101 ack 40 ------- 0 86.0 36.0 0 86
r 0.176144 101 87 tcp 40 ------- 0 37.0 87.0 0 37
+ 0.176144 87 101 ack 40 ------- 0 87.0 37.0 0 87
- 0.176144 87 101 ack 40 ------- 0 87.0 37.0 0 87
r 0.176304 101 88 tcp 40 ------- 0 38.0 88.0 0 38
+ 0.176304 88 101 ack 40 ------- 0 88.0 38.0 0 88
- 0.176304 88 101 ack 40 ------- 0 88.0 38.0 0 88
r 0.176464 101 89 tcp 40 ------- 0 39.0 89.0 0 39
+ 0.176464 89 101 ack 40 ------- 0 89.0 39.0 0 89
- 0.176464 89 101 ack 40 ------- 0 89.0 39.0 0 89
r 0.176624 101 90 tcp 40 ------- 0 40.0 90.0 0 40
+ 0.176624 90 101 ack 40 ------- 0 90.0 40.0 0 90
- 0.176624 90 101 ack 40 ------- 0 90.0 40.0 0 90
r 0.176784 101 91 tcp 40 ------- 0 41.0 91.0 0 41
+ 0.176784 91 101 ack 40 ------- 0 91.0 41.0 0 91
- 0.176784 91 101 ack 40 ------- 0 91.0 41.0 0 91
r 0.176944 101 92 tcp 40 ------- 0 42.0 92.0 0 42
+ 0.176944 92 101 ack 40 ------- 0 92.0 42.0 0 92
- 0.176944 92 101 ack 40 ------- 0 92.0 42.0 0 92
r 0.177104 101 93 tcp 40 ------- 0 43.0 93.0 0 43
+ 0.177104 93 101 ack 40 ------- 0 93.0 43.0 0 93
- 0.177104 93 101 ack 40 ------- 0 93.0 43.0 0 93
r 0.177264 101 94 tcp 40 ------- 0 44.0 94.0 0 44
+ 0.177264 94 101 ack 40 ------- 0 94.0 44.0 0 94
- 0.177264 94 101 ack 40 ------- 0 94.0 44.0 0 94
r 0.177424 101 95 tcp 40 ------- 0 45.0 95.0 0 45
+ 0.177424 95 101 ack 40 ------- 0 95.0 45.0 0 95
- 0.177424 95 101 ack 40 ------- 0 95.0 45.0 0 95
r 0.177584 101 96 tcp 40 ------- 0 46.0 96.0 0 46
+ 0.177584 96 101 ack 40 ------- 0 96.0 46.0 0 96
- 0.177584 96 101 ack 40 ------- 0 96.0 46.0 0 96
r 0.177744 101 97 tcp 40 ------- 0 47.0 97.0 0 47
+ 0.177744 97 101 ack 40 ------- 0 97.0 47.0 0 97
- 0.177744 97 101 ack 40 ------- 0 97.0 47.0 0 97
r 0.177904 101 98 tcp 40 ------- 0 48.0 98.0 0 48
+ 0.177904 98 101 ack 40 ------- 0 98.0 48.0 0 98
- 0.177904 98 101 ack 40 ------- 0 98.0 48.0 0 98
r 0.178064 101 99 tcp 40 ------- 0 49.0 99.0 0 49
+ 0.178064 99 101 ack 40 ------- 0 99.0 49.0 0 99
- 0.178064 99 101 ack 40 ------- 0 99.0 49.0 0 99
r 0.180256 50 101 ack 40 ------- 0 50.0 0.0 0 50
+ 0.180256 101 100 ack 40 ------- 0 50.0 0.0 0 50
- 0.180256 101 100 ack 40 ------- 0 50.0 0.0 0 50
r 0.180416 51 101 ack 40 ------- 0 51.0 1.0 0 51
+ 0.180416 101 100 ack 40 ------- 0 51.0 1.0 0 51
- 0.180416 101 100 ack 40 ------- 0 51.0 1.0 0 51
r 0.180576 52 101 ack 40 ------- 0 52.0 2.0 0 52
+ 0.180576 101 100 ack 40 ------- 0 52.0 2.0 0 52
- 0.180576 101 100 ack 40 ------- 0 52.0 2.0 0 52
r 0.180736 53 101 ack 40 ------- 0 53.0 3.0 0 53
+ 0.180736 101 100 ack 40 ------- 0 53.0 3.0 0 53
- 0.180736 101 100 ack 40 ------- 0 53.0 3.0 0 53
r 0.180896 54 101 ack 40 ------- 0 54.0 4.0 0 54
+ 0.180896 101 100 ack 40 ------- 0 54.0 4.0 0 54
- 0.180896 101 100 ack 40 ------- 0 54.0 4.0 0 54
r 0.181056 55 101 ack 40 ------- 0 55.0 5.0 0 55
+ 0.181056 101 100 ack 40 ------- 0 55.0 5.0 0 55
- 0.181056 101 100 ack 40 ------- 0 55.0 5.0 0 55
r 0.181216 56 101 ack 40 ------- 0 56.0 6.0 0 56
+ 0.181216 101 100 ack 40 ------- 0 56.0 6.0 0 56
- 0.181216 101 100 ack 40 ------- 0 56.0 6.0 0 56
r 0.181376 57 101 ack 40 ------- 0 57.0 7.0 0 57
+ 0.181376 101 100 ack 40 ------- 0 57.0 7.0 0 57
- 0.181376 101 100 ack 40 ------- 0 57.0 7.0 0 57
r 0.181536 58 101 ack 40 ------- 0 58.0 8.0 0 58
+ 0.181536 101 100 ack 40 ------- 0 58.0 8.0 0 58
- 0.181536 101 100 ack 40 ------- 0 58.0 8.0 0 58
r 0.181696 59 101 ack 40 ------- 0 59.0 9.0 0 59
+ 0.181696 101 100 ack 40 ------- 0 59.0 9.0 0 59
- 0.181696 101 100 ack 40 ------- 0 59.0 9.0 0 59
r 0.181856 60 101 ack 40 ------- 0 60.0 10.0 0 60
+ 0.181856 101 100 ack 40 ------- 0 60.0 10.0 0 60
- 0.181856 101 100 ack 40 ------- 0 60.0 10.0 0 60
r 0.182016 61 101 ack 40 ------- 0 61.0 11.0 0 61
+ 0.182016 101 100 ack 40 ------- 0 61.0 11.0 0 61
- 0.182016 101 100 ack 40 ------- 0 61.0 11.0 0 61
r 0.182176 62 101 ack 40 ------- 0 62.0 12.0 0 62
+ 0.182176 101 100 ack 40 ------- 0 62.0 12.0 0 62
- 0.182176 101 100 ack 40 ------- 0 62.0 12.0 0 62
r 0.182336 63 101 ack 40 ------- 0 63.0 13.0 0 63
+ 0.182336 101 100 ack 40 ------- 0 63.0 13.0 0 63
- 0.182336 101 100 ack 40 ------- 0 63.0 13.0 0 63
r 0.182496 64 101 ack 40 ------- 0 64.0 14.0 0 64
+ 0.182496 101 100 ack 40 ------- 0 64.0 14.0 0 64
- 0.182496 101 100 ack 40 ------- 0 64.0 14.0 0 64
r 0.182656 65 101 ack 40 ------- 0 65.0 15.0 0 65
+ 0.182656 101 100 ack 40 ------- 0 65.0 15.0 0 65
- 0.182656 101 100 ack 40 ------- 0 65.0 15.0 0 65
r 0.182816 66 101 ack 40 ------- 0 66.0 16.0 0 66
+ 0.182816 101 100 ack 40 ------- 0 66.0 16.0 0 66
- 0.182816 101 100 ack 40 ------- 0 66.0 16.0 0 66
r 0.182976 67 101 ack 40 ------- 0 67.0 17.0 0 67
+ 0.182976 101 100 ack 40 ------- 0 67.0 17.0 0 67
- 0.182976 101 100 ack 40 ------- 0 67.0 17.0 0 67
r 0.183136 68 101 ack 40 ------- 0 68.0 18.0 0 68
+ 0.183136 101 100 ack 40 ------- 0 68.0 18.0 0 68
- 0.183136 101 100 ack 40 ------- 0 68.0 18.0 0 68
r 0.183296 69 101 ack 40 ------- 0 69.0 19.0 0 69
+ 0.183296 101 100 ack 40 ------- 0 69.0 19.0 0 69
- 0.183296 101 100 ack 40 ------- 0 69.0 19.0 0 69
r 0.183456 70 101 ack 40 ------- 0 70.0 20.0 0 70